
                                 *****************
                                 * O   R   C   A *
                                 *****************

                                            #,                                       
                                            ###                                      
                                            ####                                     
                                            #####                                    
                                            ######                                   
                                           ########,                                 
                                     ,,################,,,,,                         
                               ,,#################################,,                 
                          ,,##########################################,,             
                       ,#########################################, ''#####,          
                    ,#############################################,,   '####,        
                  ,##################################################,,,,####,       
                ,###########''''           ''''###############################       
              ,#####''   ,,,,##########,,,,          '''####'''          '####       
            ,##' ,,,,###########################,,,                        '##       
           ' ,,###''''                  '''############,,,                           
         ,,##''                                '''############,,,,        ,,,,,,###''
      ,#''                                            '''#######################'''  
     '                                                          ''''####''''         
             ,#######,   #######,   ,#######,      ##                                
            ,#'     '#,  ##    ##  ,#'     '#,    #''#        ,####,    ,#,          
            ##       ##  ##   ,#'  ##            #'  '#       #'       ,# #          
            ##       ##  #######   ##           ,######,      #####,      #          
            '#,     ,#'  ##    ##  '#,     ,#' ,#      #,     #,   #      #          
             '#######'   ##     ##  '#######'  #'      '#     '####' #    #          



                #########################################################
                #                        -***-                          #
                #          Department of theory and spectroscopy        #
                #                                                       #
                #                      Frank Neese                      #
                #                                                       #
                #     Directorship, Architecture, Infrastructure        #
                #                    SHARK, DRIVERS                     #
                #        Core code/Algorithms in most modules           #
                #                                                       #
                #        Max Planck Institute fuer Kohlenforschung      #
                #                Kaiser Wilhelm Platz 1                 #
                #                 D-45470 Muelheim/Ruhr                 #
                #                      Germany                          #
                #                                                       #
                #                  All rights reserved                  #
                #                        -***-                          #
                #########################################################


                         Program Version 6.1.0  -  RELEASE   -
                                (GIT: $679e74b$)
                          ($2025-06-10 18:02:51 +0200$)


 With contributions from (in alphabetic order):
[Max-Planck-Institut fuer Kohlenforschung]                               
  Daniel Aravena         : Magnetic Suceptibility                        
  Michael Atanasov       : Ab Initio Ligand Field Theory (pilot matlab implementation)
  Alexander A. Auer      : GIAO ZORA, VPT2 properties, NMR spectrum      
  Ute Becker             : All parallelization in ORCA, NUMFREQ, NUMCALC 
  Giovanni Bistoni       : ED, misc. LED, open-shell LED, HFLD           
  Dmytro Bykov           : pre 5.0 version of the SCF Hessian            
  Marcos Casanova-Páez   : Triplet and SCS-CIS(D). UHF-(DLPNO)-IP/EA/STEOM-CCSD. UHF-CVS-IP/STEOM-CCSD   
  Vijay G. Chilkuri      : MRCI spin determinant printing, contributions to CSF-ICE 
  Pauline Colinet        : FMM embedding                                 
  Dipayan Datta          : RHF DLPNO-CCSD density                        
  Achintya Kumar Dutta   : EOM-CC, STEOM-CC                              
  Nicolas Foglia         : Exact transition moments, OPA infrastructure, MCD improvements    
  Dmitry Ganyushin       : Spin-Orbit,Spin-Spin,Magnetic field MRCI      
  Miquel Garcia-Rates    : C-PCM and meta-GGA Hessian, CCSD/C-PCM, Gaussian charge scheme 
  Tiago L. C. Gouveia    : GS-ROHF, GS-ROCIS                             
  Yang Guo               : DLPNO-NEVPT2, F12-NEVPT2, CIM, IAO-localization        
  Andreas Hansen         : Spin unrestricted coupled pair/coupled cluster methods 
  Ingolf Harden          : AUTO-CI MPn and infrastructure                
  Benjamin Helmich-Paris : MC-RPA, TRAH-(SCF,CASSCF), AVAS, COSX integrals, SCF dyn. polar., MC-PDFT, srDFT 
  Lee Huntington         : MR-EOM, pCC                                   
  Robert Izsak           : Overlap fitted RIJCOSX, COSX-SCS-MP3, EOM     
  Riya Kayal             : Wick's Theorem for AUTO-CI, AUTO-CI UHF-CCSDT 
  Emily Kempfer          : AUTO-CI RHF CISDT and CCSDT, approximate NEVPT4
  Christian Kollmar      : KDIIS, OOCD, Brueckner-CCSD(T), CCSD density, CASPT2, CASPT2-K, improved NEVPT2 
  Axel Koslowski         : Symmetry handling                             
  Simone Kossmann        : meta-GGA functionals, TD-DFT gradient, OOMP2, (MP2 Hessian; deprecated post 5.0) 
  Lucas Lang             : DCDCAS, Hyperfine gauge corrections, ICE-SOC+SSC
  Marvin Lechner         : AUTO-CI (C++ implementation), FIC-MRCC        
  Spencer Leger          : CASSCF response                               
  Dagmar Lenk            : GEPOL surface, SMD, ORCA-2-JSON               
  Dimitrios Liakos       : Extrapolation schemes; Compound Job, Property file
  Dimitrios Manganas     : Further ROCIS development; embedding schemes. LFT, Crystal Embedding 
  Dimitrios Pantazis     : SARC Basis sets                               
  Anastasios Papadopoulos: AUTO-CI, single reference methods and gradients 
  Taras Petrenko         : pre 6.0 DFT Hessian and TD-DFT gradient,  ECA, NRVS 
  Petra Pikulova         : Analytic Raman intensities                    
  Peter Pinski           : DLPNO-MP2, DLPNO-MP2 Gradient                 
  Shashank Vittal Rao    : ES-AILFT, MagRelax                            
  Christoph Reimann      : Effective Core Potentials                     
  Marius Retegan         : Local ZFS, SOC                                
  Christoph Riplinger    : Optimizer, TS searches, QM/MM, DLPNO-CCSD(T), (RO)-DLPNO pert. Triples 
  Michael Roemelt        : Original ROCIS implementation, recursive CI coupling coefficients
  Masaaki Saitow         : Open-shell DLPNO-CCSD energy and density      
  Barbara Sandhoefer     : DKH picture change effects                    
  Yorick L. A. Schmerwitz: GMF and freeze-and-release deltaSCF, NEB S-IDPP initial path                    
  Kantharuban Sivalingam : CASSCF convergence/infrastructure, NEVPT2, NEVPT3, NEVPT4(SD), FIC-MRCI and CEPA variants
  Bernardo de Souza      : ESD, SOC TD-DFT                               
  Georgi L. Stoychev     : AutoAux, RI-MP2 NMR, DLPNO-MP2 response, X2C  
  Van Anh Tran           : RI-MP2 g-tensors                              
  Willem Van den Heuvel  : Paramagnetic NMR                              
  Zikuan Wang            : NOTCH, Electric field optimization            
  Frank Wennmohs         : Technical directorship and infrastructure     
  Hang Xu                : AUTO-CI-Response properties                   
                                                                         
[FACCTs GmbH]                                                            
  Markus Bursch, Nicolas Foglia, Miquel Garcia-Rates, Ingolf Harden, Hagen Neugebauer, Anastasios Papadopoulos, 
  Christoph Riplinger, Bernardo de Souza, Georgi L. Stoychev                                                    
                                                                 
  APM, various basis sets, CI-OPT, improved COSX, DLPNO-Multilevel,           
  DOCKER, DRACO, updates on ESD, Fragmentator, GOAT, IRC, LR-CPCM, L-BFGS, MBIS, meta-GGA TD-DFT gradient, ML-optimized integration grids, 
  MM, NACMEs, nearIR, NEB, NEB-TS, NL-DFT gradient (VV10), 2- and 3-layer-ONIOM, interface openCOSMO-RS, QMMM,   
  Crystal-QMMM, RESP, rigid body optimization, SF, symmetry and pop. for TD-DFT, various functionals, SOLVATOR                                   
                                                                         
[Other institutions]                                                     
  V. Asgeirsson          : NEB                                           
  Christoph Bannwarth    : sTDA-DFT, sTD-DFT, PBEh-3c, B97-3c, D3        
  Giovanni Bistoni       : ETS/NOCV, ADLD/ADEX, COVALED                  
  Martin Brehm           : Molecular dynamics                            
  Ronald Cardenas        : ETS/NOCV                                      
  Martina Colucci        : COVALED                                       
  Sebastian Ehlert       : rSCAN, r2SCAN, r2SCAN-3c, D4, dhf basis sets  
  Marvin Friede          : D4 for Fr, Ra, Ac-Lr                          
  Lars Goerigk           : TD-DFT with DH, B97 family of functionals     
  Stefan Grimme          : VdW corrections, initial TS optimization, DFT functionals, gCP, sTDA/sTD-DF 
  Waldemar Hujo          : DFT-NL                                        
  H. Jonsson             : NEB                                           
  Holger Kruse           : gCP                                           
  Marcel Mueller         : wB97X-3c, vDZP basis set                      
  Hagen Neugebauer       : wr2SCAN, Native XTB                           
  Gianluca Regni         : ADLD/ADEX                                     
  Tobias Risthaus        : pre 6.0 range-separated hybrid DFT and stability analysis
  Lukas Wittmann         : regularized MP2, r2SCAN double-hybrids, wr2SCAN        
                                                                         
We gratefully acknowledge several colleagues who have allowed us to      
interface, adapt or use parts of their codes:                            
  Ed Valeev, F. Pavosevic, A. Kumar             : LibInt (2-el integral package), F12 methods 
  Garnet Chan, S. Sharma, J. Yang, R. Olivares  : DMRG                   
  Ulf Ekstrom                                   : XCFun DFT Library      
  Mihaly Kallay                                 : mrcc  (arbitrary order and MRCC methods)
  Frank Weinhold                                : gennbo (NPA and NBO analysis)           
  Simon Mueller                                 : openCOSMO-RS                            
  Christopher J. Cramer and Donald G. Truhlar   : smd solvation model                     
  S Lehtola, MJT Oliveira, MAL Marques          : LibXC Library                           
  Liviu Ungur et al                             : ANISO software                          


 Your calculation uses the libint2 library for the computation of 2-el integrals
 For citations please refer to: http://libint.valeyev.net

 Your ORCA version has been built with support for libXC version: 7.0.0
 For citations please refer to: https://libxc.gitlab.io

 This ORCA versions uses:
   CBLAS   interface :  Fast vector & matrix operations
   LAPACKE interface :  Fast linear algebra routines
   SCALAPACK package :  Parallel linear algebra routines
   Shared memory     :  Shared parallel matrices
   BLAS/LAPACK       :  OpenBLAS 0.3.29  USE64BITINT DYNAMIC_ARCH NO_AFFINITY Zen SINGLE_THREADED
        Core in use  :  Zen
   Copyright (c) 2011-2014, The OpenBLAS Project


  ***********************************
  * Starting time: Sun Aug 31 08:37:29 2025
  * Host name:     node066.cluster
  * Process ID:    1282665
  * Working dir.:  /scratch/53699936/_e0ifd0
  ***********************************

NOTE: MaxCore=2048 MB was set to SCF,MP2,MDCI,CIPSI,MRCI,RASCI and CIS
      => If you want to overwrite this, your respective input block should be placed after the MaxCore statement
================================================================================

================================================================================
                                        WARNINGS
                       Please study these warnings very carefully!
================================================================================


WARNING: The environment variable RSH_COMMAND is not set!
  ===> : All Displacements for the Numerical Hessian or Gradient calculation
         will be started on localhost

WARNING: Geometry Optimization
  ===> : Switching off AutoStart
         For restart on a previous wavefunction, please use MOREAD

Using external energy/gradient program given in input:
  "/groups/kemi/jmni/software/orca-external-tools/umaclient.sh"


WARNING: four-center integrals in TRAH must be done with SHARK!
  ===> : Turning Shark on


================================================================================
                                       INPUT FILE
================================================================================
NAME = input.inp
|  1> # Automatically generated ORCA input
|  2> 
|  3> # Number of cores
|  4> %pal nprocs 20 end
|  5> # RAM per core
|  6> %maxcore 2048
|  7> 
|  8> ! OptTS 
|  9> ! ExtOpt 
| 10> 
| 11> %geom
| 12>   Calc_Hess  true
| 13>   NumHess    true
| 14>   Recalc_Hess 5
| 15>   MaxIter    300
| 16> end
| 17> 
| 18> %method
| 19>     ProgExt "/groups/kemi/jmni/software/orca-external-tools/umaclient.sh"
| 20>     Ext_Params "-b 127.0.0.1:54973"
| 21>     end
| 22>     %output
| 23>     Print[P_EXT_OUT] 1
| 24>     Print[P_EXT_GRAD] 1
| 25>     end
| 26> %Output
| 27>   JSONPropFile True
| 28> End
| 29> 
| 30> 
| 31> *xyz 0 1 
| 32> C        -2.40139100     -1.41855500      1.04028600
| 33> C        -1.13179700     -0.83928200      1.26419300
| 34> C        -0.00084700     -1.57489200      0.86164900
| 35> C        -0.09321600     -2.85625900      0.33462800
| 36> C        -1.34596100     -3.44047000      0.17354400
| 37> C        -2.48074500     -2.71672800      0.51199000
| 38> H         0.98247900     -1.12429600      0.97959400
| 39> H         0.80599000     -3.39428100      0.04637400
| 40> H        -1.44092600     -4.44219500     -0.23689000
| 41> H        -3.46439600     -3.14611100      0.34668900
| 42> N        -3.61141100     -0.70552700      1.30278400
| 43> B        -0.93003800      0.59038400      1.92979300
| 44> H         1.11025800      4.16146800      0.81893700
| 45> H         2.64403500      3.71926400      0.04143700
| 46> H         1.32736600      2.53585000      0.15908000
| 47> C         3.92574000      1.31770000      0.72506300
| 48> H         4.69035400      2.08877000      0.58447900
| 49> H         4.42813400      0.34832900      0.78231100
| 50> H         3.27242000      1.30738000     -0.14902300
| 51> C         4.03147400      1.35140100      3.22909900
| 52> H         4.36949300      0.31198600      3.24201900
| 53> H         4.91197800      2.00037000      3.21068100
| 54> H         3.47636100      1.53820600      4.15289400
| 55> C         0.01306500      0.44616100      3.67687400
| 56> C         0.18996900     -0.86700800      4.10343100
| 57> C        -0.27450300     -1.12420800      5.40642500
| 58> H        -1.84826400      1.26308400      2.28021600
| 59> H        -0.08788400      1.26200500      1.34482600
| 60> C         2.35107900      2.91599400      2.04986300
| 61> C         3.13965500      1.56123400      2.00462700
| 62> O         1.21147600      2.57327000      2.86324300
| 63> O         2.08325300      0.58211100      2.08846600
| 64> B         0.99948300      1.21736900      2.68353800
| 65> C         3.09006500      4.06265700      2.72438200
| 66> H         2.46305500      4.95809900      2.71666700
| 67> H         3.32765500      3.82664300      3.76296400
| 68> H         4.01871100      4.29286400      2.19192600
| 69> C         1.83346500      3.35410200      0.67873200
| 70> H         0.63584100     -1.61673700      3.45989000
| 71> C        -0.79195200      0.00914500      5.98923600
| 72> H        -0.23844700     -2.09074700      5.89313300
| 73> H        -1.22214900      0.09320500      6.97950400
| 74> S        -0.71927300      1.36380500      4.96958300
| 75> C        -4.21988100      0.08217200      0.20107000
| 76> C        -4.36727900     -1.01919200      2.52983000
| 77> C        -5.27126700      0.18374600      2.84334700
| 78> C        -3.39363900     -1.18216700      3.70377100
| 79> C        -5.20058200     -2.31983900      2.44369700
| 80> C        -6.26168800      0.52372700      1.72032800
| 81> H        -4.60961700      1.03709900      3.03036800
| 82> H        -5.80790800     -0.00666900      3.78000400
| 83> C        -5.75265400      0.07544000      0.34425600
| 84> H        -6.44805200      1.60313000      1.72184600
| 85> H        -7.23125500      0.04998800      1.91010200
| 86> C        -3.89415500     -0.51879000     -1.17638700
| 87> C        -3.70766900      1.53637000      0.20048600
| 88> H        -6.17336400      0.71547300     -0.43946700
| 89> H        -6.10556000     -0.93818500      0.12603800
| 90> H        -4.26274800     -1.54510700     -1.26340200
| 91> H        -2.81912400     -0.52700800     -1.37405400
| 92> H        -4.37543200      0.08137800     -1.95553200
| 93> H        -4.18776700      2.11239100     -0.59922200
| 94> H        -2.62722700      1.56359400      0.03226200
| 95> H        -3.90336000      2.03726900      1.15188100
| 96> H        -5.89510000     -2.31826800      1.60061300
| 97> H        -5.78453600     -2.45980000      3.36056500
| 98> H        -4.54403100     -3.18857400      2.33739000
| 99> H        -2.70401700     -2.01536600      3.54280300
|100> H        -3.94934400     -1.37807200      4.62691700
|101> H        -2.80636800     -0.27152100      3.83843200
|102> *
|103> 
|104> 
|105>                          ****END OF INPUT****
================================================================================

                       *****************************
                       * Geometry Optimization Run *
                       *****************************

Geometry optimization settings:
Update method            Update   .... Bofill
Choice of coordinates    CoordSys .... (2022) Redundant Internals
Initial Hessian          InHess   .... Almloef's Model
Max. no of cycles        MaxIter  .... 300

Convergence Tolerances:
Energy Change            TolE     ....  5.0000e-06 Eh
Max. Gradient            TolMAXG  ....  3.0000e-04 Eh/bohr
RMS Gradient             TolRMSG  ....  1.0000e-04 Eh/bohr
Max. Displacement        TolMAXD  ....  4.0000e-03 bohr
RMS Displacement         TolRMSD  ....  2.0000e-03 bohr
Strict Convergence                .... False

------------------------------------------------------------------------------
                        ORCA OPTIMIZATION COORDINATE SETUP
------------------------------------------------------------------------------

The optimization will be done in redundant internal coordinates (2022)
Making redundant internal coordinates   ...  (2022 redundants) done
Following TS mode number                ...     0
Evaluating the initial hessian          ...  (Is done on the fly) done
Evaluating the coordinates              ...  done
Calculating the B-matrix                .... done
Calculating the G-matrix                .... done
The number of degrees of freedom        ....  372

    -----------------------------------------------------------------
                    Redundant Internal Coordinates


    -----------------------------------------------------------------
         Definition                    Initial Value    d2E/dq (diagonal element)
    -----------------------------------------------------------------
      1. B(C   1,C   0)                  1.4134         0.000000   
      2. B(C   2,C   1)                  1.4079         0.000000   
      3. B(C   3,C   2)                  1.3886         0.000000   
      4. B(C   4,C   3)                  1.3916         0.000000   
      5. B(C   5,C   0)                  1.4038         0.000000   
      6. B(C   5,C   4)                  1.3878         0.000000   
      7. B(H   6,C   2)                  1.0881         0.000000   
      8. B(H   7,C   3)                  1.0868         0.000000   
      9. B(H   8,C   4)                  1.0867         0.000000   
     10. B(H   9,C   5)                  1.0859         0.000000   
     11. B(N  10,C   0)                  1.4288         0.000000   
     12. B(B  11,C   1)                  1.5899         0.000000   
     13. B(H  16,C  15)                  1.0950         0.000000   
     14. B(H  17,C  15)                  1.0933         0.000000   
     15. B(H  18,C  15)                  1.0913         0.000000   
     16. B(H  20,C  19)                  1.0931         0.000000   
     17. B(H  21,C  19)                  1.0940         0.000000   
     18. B(H  22,C  19)                  1.0938         0.000000   
     19. B(C  23,B  11)                  1.9906         0.000000   
     20. B(C  24,C  23)                  1.3920         0.000000   
     21. B(C  25,C  24)                  1.4070         0.000000   
     22. B(H  26,B  11)                  1.1910         0.000000   
     23. B(H  27,B  11)                  1.2258         0.000000   
     24. B(C  29,C  28)                  1.5682         0.000000   
     25. B(C  29,C  19)                  1.5293         0.000000   
     26. B(C  29,C  15)                  1.5214         0.000000   
     27. B(O  30,C  28)                  1.4414         0.000000   
     28. B(O  31,C  29)                  1.4428         0.000000   
     29. B(B  32,O  31)                  1.3900         0.000000   
     30. B(B  32,O  30)                  1.3841         0.000000   
     31. B(B  32,C  23)                  1.5983         0.000000   
     32. B(C  33,C  28)                  1.5218         0.000000   
     33. B(H  34,C  33)                  1.0932         0.000000   
     34. B(H  35,C  33)                  1.0912         0.000000   
     35. B(H  36,C  33)                  1.0949         0.000000   
     36. B(C  37,C  28)                  1.5297         0.000000   
     37. B(C  37,H  14)                  1.0935         0.000000   
     38. B(C  37,H  13)                  1.0939         0.000000   
     39. B(C  37,H  12)                  1.0929         0.000000   
     40. B(H  38,C  24)                  1.0840         0.000000   
     41. B(C  39,C  25)                  1.3755         0.000000   
     42. B(H  40,C  25)                  1.0828         0.000000   
     43. B(H  41,C  39)                  1.0829         0.000000   
     44. B(S  42,C  39)                  1.6971         0.000000   
     45. B(S  42,C  23)                  1.7463         0.000000   
     46. B(C  43,N  10)                  1.4847         0.000000   
     47. B(C  44,N  10)                  1.4749         0.000000   
     48. B(C  45,C  44)                  1.5371         0.000000   
     49. B(C  46,C  44)                  1.5338         0.000000   
     50. B(C  47,C  44)                  1.5471         0.000000   
     51. B(C  48,C  45)                  1.5355         0.000000   
     52. B(H  49,C  45)                  1.0959         0.000000   
     53. B(H  50,C  45)                  1.0962         0.000000   
     54. B(C  51,C  48)                  1.5342         0.000000   
     55. B(C  51,C  43)                  1.5395         0.000000   
     56. B(H  52,C  48)                  1.0954         0.000000   
     57. B(H  53,C  48)                  1.0957         0.000000   
     58. B(C  54,C  43)                  1.5377         0.000000   
     59. B(C  55,C  43)                  1.5418         0.000000   
     60. B(H  56,C  51)                  1.0958         0.000000   
     61. B(H  57,C  51)                  1.0953         0.000000   
     62. B(H  58,C  54)                  1.0940         0.000000   
     63. B(H  59,C  54)                  1.0931         0.000000   
     64. B(H  60,C  54)                  1.0949         0.000000   
     65. B(H  61,C  55)                  1.0963         0.000000   
     66. B(H  62,H  14)                  4.0743         0.000000   
     67. B(H  62,C  55)                  1.0938         0.000000   
     68. B(H  63,C  55)                  1.0929         0.000000   
     69. B(H  64,C  47)                  1.0923         0.000000   
     70. B(H  65,C  47)                  1.0960         0.000000   
     71. B(H  66,C  47)                  1.0941         0.000000   
     72. B(H  67,C  46)                  1.0935         0.000000   
     73. B(H  68,C  46)                  1.0952         0.000000   
     74. B(H  69,C  46)                  1.0919         0.000000   
     75. A(C   5,C   0,N  10)          118.8658         0.000000   
     76. A(C   1,C   0,C   5)          119.3023         0.000000   
     77. A(C   1,C   0,N  10)          121.8097         0.000000   
     78. A(C   2,C   1,B  11)          119.1827         0.000000   
     79. A(C   0,C   1,B  11)          123.2901         0.000000   
     80. A(C   0,C   1,C   2)          117.5252         0.000000   
     81. A(C   1,C   2,C   3)          122.4946         0.000000   
     82. A(C   3,C   2,H   6)          118.9082         0.000000   
     83. A(C   1,C   2,H   6)          118.5935         0.000000   
     84. A(C   2,C   3,H   7)          120.1624         0.000000   
     85. A(C   4,C   3,H   7)          120.4172         0.000000   
     86. A(C   2,C   3,C   4)          119.4196         0.000000   
     87. A(C   3,C   4,H   8)          120.6213         0.000000   
     88. A(C   5,C   4,H   8)          120.0901         0.000000   
     89. A(C   3,C   4,C   5)          119.2691         0.000000   
     90. A(C   4,C   5,H   9)          119.8233         0.000000   
     91. A(C   0,C   5,C   4)          121.8574         0.000000   
     92. A(C   0,C   5,H   9)          118.3034         0.000000   
     93. A(C   0,N  10,C  44)          118.7329         0.000000   
     94. A(C  43,N  10,C  44)          121.3405         0.000000   
     95. A(C   0,N  10,C  43)          118.3915         0.000000   
     96. A(C  23,B  11,H  26)           98.5087         0.000000   
     97. A(C   1,B  11,C  23)          111.2480         0.000000   
     98. A(C  23,B  11,H  27)           97.6451         0.000000   
     99. A(C   1,B  11,H  27)          112.3404         0.000000   
    100. A(C   1,B  11,H  26)          122.2253         0.000000   
    101. A(H  26,B  11,H  27)          111.1390         0.000000   
    102. A(H  16,C  15,H  17)          108.0717         0.000000   
    103. A(H  17,C  15,H  18)          107.9775         0.000000   
    104. A(H  16,C  15,C  29)          110.8592         0.000000   
    105. A(H  18,C  15,C  29)          111.4594         0.000000   
    106. A(H  17,C  15,C  29)          109.5919         0.000000   
    107. A(H  16,C  15,H  18)          108.7758         0.000000   
    108. A(H  20,C  19,C  29)          108.6795         0.000000   
    109. A(H  21,C  19,C  29)          111.9928         0.000000   
    110. A(H  21,C  19,H  22)          108.7461         0.000000   
    111. A(H  22,C  19,C  29)          110.9061         0.000000   
    112. A(H  20,C  19,H  21)          108.3852         0.000000   
    113. A(H  20,C  19,H  22)          108.0203         0.000000   
    114. A(C  24,C  23,B  32)          124.5562         0.000000   
    115. A(B  11,C  23,B  32)           73.2602         0.000000   
    116. A(B  11,C  23,C  24)          113.4223         0.000000   
    117. A(B  32,C  23,S  42)          117.7324         0.000000   
    118. A(C  24,C  23,S  42)          108.7948         0.000000   
    119. A(B  11,C  23,S  42)          114.3898         0.000000   
    120. A(C  25,C  24,H  38)          123.9964         0.000000   
    121. A(C  23,C  24,H  38)          121.5216         0.000000   
    122. A(C  23,C  24,C  25)          114.4737         0.000000   
    123. A(C  39,C  25,H  40)          123.8895         0.000000   
    124. A(C  24,C  25,H  40)          124.6427         0.000000   
    125. A(C  24,C  25,C  39)          111.4667         0.000000   
    126. A(C  33,C  28,C  37)          110.2314         0.000000   
    127. A(C  29,C  28,O  30)          102.0303         0.000000   
    128. A(C  29,C  28,C  33)          114.8050         0.000000   
    129. A(O  30,C  28,C  33)          108.2375         0.000000   
    130. A(O  30,C  28,C  37)          107.8408         0.000000   
    131. A(C  29,C  28,C  37)          113.0620         0.000000   
    132. A(C  28,C  29,O  31)          102.4977         0.000000   
    133. A(C  19,C  29,O  31)          106.6989         0.000000   
    134. A(C  15,C  29,O  31)          108.5759         0.000000   
    135. A(C  19,C  29,C  28)          112.8725         0.000000   
    136. A(C  15,C  29,C  28)          114.9846         0.000000   
    137. A(C  15,C  29,C  19)          110.4963         0.000000   
    138. A(C  28,O  30,B  32)          106.3050         0.000000   
    139. A(C  29,O  31,B  32)          106.5948         0.000000   
    140. A(C  23,B  32,O  31)          121.7853         0.000000   
    141. A(C  23,B  32,O  30)          119.1129         0.000000   
    142. A(O  30,B  32,O  31)          112.5732         0.000000   
    143. A(H  35,C  33,H  36)          108.8830         0.000000   
    144. A(H  34,C  33,H  36)          108.1081         0.000000   
    145. A(C  28,C  33,H  36)          110.7766         0.000000   
    146. A(H  34,C  33,H  35)          107.9844         0.000000   
    147. A(C  28,C  33,H  35)          111.3835         0.000000   
    148. A(C  28,C  33,H  34)          109.6058         0.000000   
    149. A(H  13,C  37,H  14)          108.4152         0.000000   
    150. A(H  12,C  37,H  14)          107.9073         0.000000   
    151. A(H  12,C  37,H  13)          108.5707         0.000000   
    152. A(H  12,C  37,C  28)          108.6929         0.000000   
    153. A(H  14,C  37,C  28)          111.6090         0.000000   
    154. A(H  13,C  37,C  28)          111.5366         0.000000   
    155. A(H  41,C  39,S  42)          120.2957         0.000000   
    156. A(C  25,C  39,S  42)          112.7698         0.000000   
    157. A(C  25,C  39,H  41)          126.9315         0.000000   
    158. A(C  23,S  42,C  39)           92.4802         0.000000   
    159. A(C  54,C  43,C  55)          107.3315         0.000000   
    160. A(C  51,C  43,C  55)          109.5689         0.000000   
    161. A(N  10,C  43,C  55)          111.3783         0.000000   
    162. A(C  51,C  43,C  54)          107.0082         0.000000   
    163. A(N  10,C  43,C  54)          111.7487         0.000000   
    164. A(N  10,C  43,C  51)          109.6758         0.000000   
    165. A(C  46,C  44,C  47)          107.1688         0.000000   
    166. A(C  45,C  44,C  47)          110.6421         0.000000   
    167. A(N  10,C  44,C  47)          114.1112         0.000000   
    168. A(C  45,C  44,C  46)          107.4799         0.000000   
    169. A(N  10,C  44,C  46)          109.5132         0.000000   
    170. A(N  10,C  44,C  45)          107.7378         0.000000   
    171. A(H  49,C  45,H  50)          106.5600         0.000000   
    172. A(C  48,C  45,H  50)          110.3429         0.000000   
    173. A(C  44,C  45,H  50)          109.0424         0.000000   
    174. A(C  48,C  45,H  49)          109.9890         0.000000   
    175. A(C  44,C  45,H  49)          106.8065         0.000000   
    176. A(C  44,C  45,C  48)          113.7948         0.000000   
    177. A(H  67,C  46,H  68)          107.9262         0.000000   
    178. A(H  68,C  46,H  69)          108.5502         0.000000   
    179. A(H  67,C  46,H  69)          108.3264         0.000000   
    180. A(C  44,C  46,H  69)          110.3146         0.000000   
    181. A(C  44,C  46,H  68)          110.0022         0.000000   
    182. A(C  44,C  46,H  67)          111.6307         0.000000   
    183. A(C  44,C  47,H  64)          112.5961         0.000000   
    184. A(H  65,C  47,H  66)          107.4341         0.000000   
    185. A(H  64,C  47,H  66)          107.9203         0.000000   
    186. A(C  44,C  47,H  66)          110.4704         0.000000   
    187. A(H  64,C  47,H  65)          107.8843         0.000000   
    188. A(C  44,C  47,H  65)          110.3506         0.000000   
    189. A(H  52,C  48,H  53)          105.9783         0.000000   
    190. A(C  51,C  48,H  53)          108.8218         0.000000   
    191. A(C  45,C  48,H  53)          110.3878         0.000000   
    192. A(C  51,C  48,H  52)          110.2207         0.000000   
    193. A(C  45,C  48,H  52)          109.0818         0.000000   
    194. A(C  45,C  48,C  51)          112.1664         0.000000   
    195. A(H  56,C  51,H  57)          105.9221         0.000000   
    196. A(C  48,C  51,H  57)          110.0123         0.000000   
    197. A(C  43,C  51,H  57)          107.8381         0.000000   
    198. A(C  48,C  51,H  56)          110.0865         0.000000   
    199. A(C  43,C  51,H  56)          108.2507         0.000000   
    200. A(C  43,C  51,C  48)          114.3624         0.000000   
    201. A(H  59,C  54,H  60)          107.9224         0.000000   
    202. A(H  58,C  54,H  60)          108.0312         0.000000   
    203. A(C  43,C  54,H  60)          109.2747         0.000000   
    204. A(H  58,C  54,H  59)          108.0551         0.000000   
    205. A(C  43,C  54,H  59)          111.9160         0.000000   
    206. A(C  43,C  54,H  58)          111.5013         0.000000   
    207. A(H  62,C  55,H  63)          107.4190         0.000000   
    208. A(H  61,C  55,H  63)          108.4094         0.000000   
    209. A(C  43,C  55,H  63)          111.8690         0.000000   
    210. A(H  61,C  55,H  62)          107.8976         0.000000   
    211. A(C  43,C  55,H  62)          110.5914         0.000000   
    212. A(C  43,C  55,H  61)          110.5101         0.000000   
    213. D(B  11,C   1,C   0,C   5)   -176.6090         0.000000   
    214. D(B  11,C   1,C   0,N  10)      5.1255         0.000000   
    215. D(C   2,C   1,C   0,N  10)   -174.3566         0.000000   
    216. D(C   2,C   1,C   0,C   5)      3.9089         0.000000   
    217. D(H   6,C   2,C   1,C   0)    176.9522         0.000000   
    218. D(C   3,C   2,C   1,C   0)     -3.7606         0.000000   
    219. D(C   3,C   2,C   1,B  11)    176.7352         0.000000   
    220. D(H   6,C   2,C   1,B  11)     -2.5519         0.000000   
    221. D(H   7,C   3,C   2,H   6)     -0.0278         0.000000   
    222. D(C   4,C   3,C   2,C   1)      1.0021         0.000000   
    223. D(H   7,C   3,C   2,C   1)   -179.3128         0.000000   
    224. D(C   4,C   3,C   2,H   6)   -179.7129         0.000000   
    225. D(C   5,C   4,C   3,C   2)      1.6087         0.000000   
    226. D(H   8,C   4,C   3,C   2)   -179.9953         0.000000   
    227. D(C   5,C   4,C   3,H   7)   -178.0756         0.000000   
    228. D(H   8,C   4,C   3,H   7)      0.3204         0.000000   
    229. D(H   9,C   5,C   4,C   3)    177.1568         0.000000   
    230. D(H   9,C   5,C   4,H   8)     -1.2479         0.000000   
    231. D(C   0,C   5,C   4,C   3)     -1.3679         0.000000   
    232. D(C   0,C   5,C   4,H   8)   -179.7726         0.000000   
    233. D(H   9,C   5,C   0,C   1)    179.9855         0.000000   
    234. D(H   9,C   5,C   0,N  10)     -1.6975         0.000000   
    235. D(C   4,C   5,C   0,C   1)     -1.4682         0.000000   
    236. D(C   4,C   5,C   0,N  10)    176.8488         0.000000   
    237. D(C  44,N  10,C   0,C   1)   -102.5824         0.000000   
    238. D(C  44,N  10,C   0,C   5)     79.1447         0.000000   
    239. D(C  43,N  10,C   0,C   1)     91.3497         0.000000   
    240. D(C  43,N  10,C   0,C   5)    -86.9231         0.000000   
    241. D(H  27,B  11,C   1,C   0)   -136.1424         0.000000   
    242. D(H  26,B  11,C   1,C   0)     -0.0931         0.000000   
    243. D(C  23,B  11,C   1,C   0)    115.5500         0.000000   
    244. D(C  23,B  11,C   1,C   2)    -64.9760         0.000000   
    245. D(H  26,B  11,C   1,C   2)    179.3809         0.000000   
    246. D(B  32,C  23,B  11,H  26)   -116.9185         0.000000   
    247. D(B  32,C  23,B  11,C   1)    113.5365         0.000000   
    248. D(C  24,C  23,B  11,H  26)    122.0700         0.000000   
    249. D(C  24,C  23,B  11,H  27)   -125.1001         0.000000   
    250. D(B  32,C  23,B  11,H  27)     -4.0886         0.000000   
    251. D(C  24,C  23,B  11,C   1)     -7.4750         0.000000   
    252. D(H  38,C  24,C  23,B  32)    -33.4670         0.000000   
    253. D(H  38,C  24,C  23,B  11)     51.7847         0.000000   
    254. D(C  25,C  24,C  23,S  42)      1.3200         0.000000   
    255. D(C  25,C  24,C  23,B  32)    147.5473         0.000000   
    256. D(C  25,C  24,C  23,B  11)   -127.2010         0.000000   
    257. D(H  40,C  25,C  24,H  38)     -0.3119         0.000000   
    258. D(H  40,C  25,C  24,C  23)    178.6452         0.000000   
    259. D(C  39,C  25,C  24,H  38)   -179.9406         0.000000   
    260. D(C  39,C  25,C  24,C  23)     -0.9835         0.000000   
    261. D(C  15,C  29,C  28,C  33)    -94.5519         0.000000   
    262. D(C  15,C  29,C  28,O  30)    148.6403         0.000000   
    263. D(C  28,C  29,C  19,H  22)     48.9018         0.000000   
    264. D(C  28,C  29,C  19,H  21)    -72.7866         0.000000   
    265. D(C  15,C  29,C  19,H  22)    179.2246         0.000000   
    266. D(C  15,C  29,C  19,H  21)     57.5362         0.000000   
    267. D(C  15,C  29,C  19,H  20)    -62.1742         0.000000   
    268. D(C  28,C  29,C  15,H  18)    -59.8044         0.000000   
    269. D(C  28,C  29,C  19,H  20)    167.5030         0.000000   
    270. D(C  28,C  29,C  15,H  17)   -179.2716         0.000000   
    271. D(C  28,C  29,C  15,H  16)     61.5200         0.000000   
    272. D(C  19,C  29,C  15,H  18)    170.9994         0.000000   
    273. D(C  19,C  29,C  15,H  17)     51.5322         0.000000   
    274. D(C  15,C  29,C  28,C  37)     33.0969         0.000000   
    275. D(C  19,C  29,C  15,H  16)    -67.6762         0.000000   
    276. D(C  19,C  29,C  28,C  37)    161.1095         0.000000   
    277. D(C  19,C  29,C  28,C  33)     33.4607         0.000000   
    278. D(C  19,C  29,C  28,O  30)    -83.3471         0.000000   
    279. D(B  32,O  30,C  28,C  37)     91.6528         0.000000   
    280. D(B  32,O  30,C  28,C  33)   -149.1020         0.000000   
    281. D(B  32,O  30,C  28,C  29)    -27.6448         0.000000   
    282. D(B  32,O  31,C  29,C  28)    -23.0390         0.000000   
    283. D(B  32,O  31,C  29,C  19)     95.7862         0.000000   
    284. D(B  32,O  31,C  29,C  15)   -145.1048         0.000000   
    285. D(O  30,B  32,O  31,C  29)      6.6171         0.000000   
    286. D(C  23,B  32,O  31,C  29)   -144.7208         0.000000   
    287. D(O  31,B  32,O  30,C  28)     14.7406         0.000000   
    288. D(C  23,B  32,O  30,C  28)    166.9224         0.000000   
    289. D(O  31,B  32,C  23,C  24)      4.6034         0.000000   
    290. D(O  31,B  32,C  23,B  11)   -102.6663         0.000000   
    291. D(O  30,B  32,C  23,S  42)     -1.4170         0.000000   
    292. D(O  30,B  32,C  23,C  24)   -144.9361         0.000000   
    293. D(O  30,B  32,C  23,B  11)    107.7942         0.000000   
    294. D(H  35,C  33,C  28,C  37)    170.8697         0.000000   
    295. D(H  35,C  33,C  28,O  30)     53.1448         0.000000   
    296. D(H  35,C  33,C  28,C  29)    -60.0618         0.000000   
    297. D(H  34,C  33,C  28,C  37)     51.4328         0.000000   
    298. D(H  34,C  33,C  28,O  30)    -66.2922         0.000000   
    299. D(H  34,C  33,C  28,C  29)   -179.4987         0.000000   
    300. D(H  13,C  37,C  28,C  33)     56.6291         0.000000   
    301. D(H  13,C  37,C  28,O  30)    174.5986         0.000000   
    302. D(H  13,C  37,C  28,C  29)    -73.3767         0.000000   
    303. D(H  12,C  37,C  28,C  33)    -63.0388         0.000000   
    304. D(H  12,C  37,C  28,O  30)     54.9307         0.000000   
    305. D(H  12,C  37,C  28,C  29)    166.9554         0.000000   
    306. D(S  42,C  39,C  25,H  40)   -179.4778         0.000000   
    307. D(S  42,C  39,C  25,C  24)      0.1542         0.000000   
    308. D(H  41,C  39,C  25,H  40)     -0.1016         0.000000   
    309. D(H  41,C  39,C  25,C  24)    179.5304         0.000000   
    310. D(C  23,S  42,C  39,H  41)   -178.9124         0.000000   
    311. D(C  23,S  42,C  39,C  25)      0.5100         0.000000   
    312. D(C  39,S  42,C  23,B  32)   -149.8769         0.000000   
    313. D(C  39,S  42,C  23,C  24)     -1.0241         0.000000   
    314. D(C  39,S  42,C  23,B  11)    126.9529         0.000000   
    315. D(C  55,C  43,N  10,C   0)    -91.1152         0.000000   
    316. D(C  54,C  43,N  10,C  44)   -136.7642         0.000000   
    317. D(C  54,C  43,N  10,C   0)     28.9242         0.000000   
    318. D(C  51,C  43,N  10,C  44)    -18.2680         0.000000   
    319. D(C  51,C  43,N  10,C   0)    147.4204         0.000000   
    320. D(C  47,C  44,N  10,C   0)    -77.7365         0.000000   
    321. D(C  46,C  44,N  10,C  43)   -151.9821         0.000000   
    322. D(C  46,C  44,N  10,C   0)     42.3769         0.000000   
    323. D(C  45,C  44,N  10,C  43)    -35.3709         0.000000   
    324. D(C  45,C  44,N  10,C   0)    158.9882         0.000000   
    325. D(H  49,C  45,C  44,C  47)    172.1406         0.000000   
    326. D(H  49,C  45,C  44,C  46)     55.4391         0.000000   
    327. D(H  49,C  45,C  44,N  10)    -62.4917         0.000000   
    328. D(C  48,C  45,C  44,C  47)    -66.2954         0.000000   
    329. D(C  48,C  45,C  44,C  46)    177.0030         0.000000   
    330. D(C  48,C  45,C  44,N  10)     59.0723         0.000000   
    331. D(H  68,C  46,C  44,C  47)    -57.8516         0.000000   
    332. D(H  68,C  46,C  44,C  45)     61.1038         0.000000   
    333. D(H  68,C  46,C  44,N  10)    177.8779         0.000000   
    334. D(H  67,C  46,C  44,C  47)     61.9312         0.000000   
    335. D(H  67,C  46,C  44,C  45)   -179.1134         0.000000   
    336. D(H  67,C  46,C  44,N  10)    -62.3393         0.000000   
    337. D(H  64,C  47,C  44,C  46)   -177.2288         0.000000   
    338. D(H  64,C  47,C  44,C  45)     65.8775         0.000000   
    339. D(H  64,C  47,C  44,N  10)    -55.8097         0.000000   
    340. D(H  65,C  47,C  44,C  46)     62.1646         0.000000   
    341. D(H  65,C  47,C  44,C  45)    -54.7290         0.000000   
    342. D(H  65,C  47,C  44,N  10)   -176.4163         0.000000   
    343. D(H  52,C  48,C  45,H  50)     88.2572         0.000000   
    344. D(H  52,C  48,C  45,H  49)    -29.0222         0.000000   
    345. D(H  52,C  48,C  45,C  44)   -148.8011         0.000000   
    346. D(C  51,C  48,C  45,H  50)   -149.3409         0.000000   
    347. D(C  51,C  48,C  45,H  49)     93.3796         0.000000   
    348. D(C  51,C  48,C  45,C  44)    -26.3993         0.000000   
    349. D(H  56,C  51,C  48,H  53)     85.2166         0.000000   
    350. D(H  56,C  51,C  48,H  52)    -30.5988         0.000000   
    351. D(H  56,C  51,C  48,C  45)   -152.3518         0.000000   
    352. D(C  43,C  51,C  48,H  53)   -152.6669         0.000000   
    353. D(C  43,C  51,C  48,H  52)     91.5177         0.000000   
    354. D(C  43,C  51,C  48,C  45)    -30.2352         0.000000   
    355. D(H  56,C  51,C  43,C  55)     53.7995         0.000000   
    356. D(H  56,C  51,C  43,C  54)    -62.2633         0.000000   
    357. D(H  56,C  51,C  43,N  10)    176.3449         0.000000   
    358. D(C  48,C  51,C  43,C  55)    -69.3143         0.000000   
    359. D(C  48,C  51,C  43,C  54)    174.6229         0.000000   
    360. D(C  48,C  51,C  43,N  10)     53.2310         0.000000   
    361. D(H  59,C  54,C  43,C  55)     60.8851         0.000000   
    362. D(H  59,C  54,C  43,C  51)    178.4257         0.000000   
    363. D(H  59,C  54,C  43,N  10)    -61.5009         0.000000   
    364. D(H  58,C  54,C  43,C  55)   -177.9467         0.000000   
    365. D(H  58,C  54,C  43,C  51)    -60.4062         0.000000   
    366. D(H  58,C  54,C  43,N  10)     59.6672         0.000000   
    367. D(H  62,C  55,C  43,C  54)    -60.3517         0.000000   
    368. D(H  62,C  55,C  43,C  51)   -176.2093         0.000000   
    369. D(H  62,C  55,C  43,N  10)     62.2641         0.000000   
    370. D(H  61,C  55,C  43,C  54)     59.0583         0.000000   
    371. D(H  61,C  55,C  43,C  51)    -56.7994         0.000000   
    372. D(H  61,C  55,C  43,N  10)   -178.3259         0.000000   
    -----------------------------------------------------------------

Number of atoms                         .... 70
Number of degrees of freedom            .... 372


         *************************************************************
         *                GEOMETRY OPTIMIZATION CYCLE   1            *
         *************************************************************
---------------------------------
CARTESIAN COORDINATES (ANGSTROEM)
---------------------------------
  C     -2.401391   -1.418555    1.040286
  C     -1.131797   -0.839282    1.264193
  C     -0.000847   -1.574892    0.861649
  C     -0.093216   -2.856259    0.334628
  C     -1.345961   -3.440470    0.173544
  C     -2.480745   -2.716728    0.511990
  H      0.982479   -1.124296    0.979594
  H      0.805990   -3.394281    0.046374
  H     -1.440926   -4.442195   -0.236890
  H     -3.464396   -3.146111    0.346689
  N     -3.611411   -0.705527    1.302784
  B     -0.930038    0.590384    1.929793
  H      1.110258    4.161468    0.818937
  H      2.644035    3.719264    0.041437
  H      1.327366    2.535850    0.159080
  C      3.925740    1.317700    0.725063
  H      4.690354    2.088770    0.584479
  H      4.428134    0.348329    0.782311
  H      3.272420    1.307380   -0.149023
  C      4.031474    1.351401    3.229099
  H      4.369493    0.311986    3.242019
  H      4.911978    2.000370    3.210681
  H      3.476361    1.538206    4.152894
  C      0.013065    0.446161    3.676874
  C      0.189969   -0.867008    4.103431
  C     -0.274503   -1.124208    5.406425
  H     -1.848264    1.263084    2.280216
  H     -0.087884    1.262005    1.344826
  C      2.351079    2.915994    2.049863
  C      3.139655    1.561234    2.004627
  O      1.211476    2.573270    2.863243
  O      2.083253    0.582111    2.088466
  B      0.999483    1.217369    2.683538
  C      3.090065    4.062657    2.724382
  H      2.463055    4.958099    2.716667
  H      3.327655    3.826643    3.762964
  H      4.018711    4.292864    2.191926
  C      1.833465    3.354102    0.678732
  H      0.635841   -1.616737    3.459890
  C     -0.791952    0.009145    5.989236
  H     -0.238447   -2.090747    5.893133
  H     -1.222149    0.093205    6.979504
  S     -0.719273    1.363805    4.969583
  C     -4.219881    0.082172    0.201070
  C     -4.367279   -1.019192    2.529830
  C     -5.271267    0.183746    2.843347
  C     -3.393639   -1.182167    3.703771
  C     -5.200582   -2.319839    2.443697
  C     -6.261688    0.523727    1.720328
  H     -4.609617    1.037099    3.030368
  H     -5.807908   -0.006669    3.780004
  C     -5.752654    0.075440    0.344256
  H     -6.448052    1.603130    1.721846
  H     -7.231255    0.049988    1.910102
  C     -3.894155   -0.518790   -1.176387
  C     -3.707669    1.536370    0.200486
  H     -6.173364    0.715473   -0.439467
  H     -6.105560   -0.938185    0.126038
  H     -4.262748   -1.545107   -1.263402
  H     -2.819124   -0.527008   -1.374054
  H     -4.375432    0.081378   -1.955532
  H     -4.187767    2.112391   -0.599222
  H     -2.627227    1.563594    0.032262
  H     -3.903360    2.037269    1.151881
  H     -5.895100   -2.318268    1.600613
  H     -5.784536   -2.459800    3.360565
  H     -4.544031   -3.188574    2.337390
  H     -2.704017   -2.015366    3.542803
  H     -3.949344   -1.378072    4.626917
  H     -2.806368   -0.271521    3.838432

----------------------------
CARTESIAN COORDINATES (A.U.)
----------------------------
  NO LB      ZA    FRAG     MASS         X           Y           Z
   0 C     6.0000    0    12.011   -4.537971   -2.680680    1.965856
   1 C     6.0000    0    12.011   -2.138786   -1.586013    2.388979
   2 C     6.0000    0    12.011   -0.001601   -2.976115    1.628281
   3 C     6.0000    0    12.011   -0.176153   -5.397547    0.632355
   4 C     6.0000    0    12.011   -2.543498   -6.501546    0.327951
   5 C     6.0000    0    12.011   -4.687929   -5.133872    0.967521
   6 H     1.0000    0     1.008    1.856616   -2.124612    1.851164
   7 H     1.0000    0     1.008    1.523100   -6.414262    0.087634
   8 H     1.0000    0     1.008   -2.722956   -8.394532   -0.447657
   9 H     1.0000    0     1.008   -6.546760   -5.945288    0.655147
  10 N     7.0000    0    14.007   -6.824578   -1.333253    2.461905
  11 B     5.0000    0    10.810   -1.757517    1.115664    3.646780
  12 H     1.0000    0     1.008    2.098084    7.864035    1.547567
  13 H     1.0000    0     1.008    4.996502    7.028390    0.078305
  14 H     1.0000    0     1.008    2.508358    4.792062    0.300618
  15 C     6.0000    0    12.011    7.418573    2.490092    1.370170
  16 H     1.0000    0     1.008    8.863485    3.947203    1.104505
  17 H     1.0000    0     1.008    8.367961    0.658246    1.478354
  18 H     1.0000    0     1.008    6.183978    2.470590   -0.281613
  19 C     6.0000    0    12.011    7.618382    2.553778    6.102113
  20 H     1.0000    0     1.008    8.257145    0.589568    6.126528
  21 H     1.0000    0     1.008    9.282293    3.780151    6.067308
  22 H     1.0000    0     1.008    6.569370    2.906788    7.847832
  23 C     6.0000    0    12.011    0.024689    0.843122    6.948285
  24 C     6.0000    0    12.011    0.358989   -1.638408    7.754361
  25 C     6.0000    0    12.011   -0.518735   -2.124445   10.216663
  26 H     1.0000    0     1.008   -3.492713    2.386883    4.308984
  27 H     1.0000    0     1.008   -0.166077    2.384844    2.541353
  28 C     6.0000    0    12.011    4.442895    5.510430    3.873680
  29 C     6.0000    0    12.011    5.933088    2.950305    3.788196
  30 O     8.0000    0    15.999    2.289358    4.862776    5.410745
  31 O     8.0000    0    15.999    3.936778    1.100030    3.946629
  32 B     5.0000    0    10.810    1.888749    2.300494    5.071152
  33 C     6.0000    0    12.011    5.839377    7.677309    5.148336
  34 H     1.0000    0     1.008    4.654499    9.369449    5.133757
  35 H     1.0000    0     1.008    6.288357    7.231307    7.110971
  36 H     1.0000    0     1.008    7.594263    8.112337    4.142140
  37 C     6.0000    0    12.011    3.464747    6.338334    1.282618
  38 H     1.0000    0     1.008    1.201565   -3.055190    6.538245
  39 C     6.0000    0    12.011   -1.496572    0.017282   11.318016
  40 H     1.0000    0     1.008   -0.450600   -3.950939   11.136407
  41 H     1.0000    0     1.008   -2.309527    0.176132   13.189351
  42 S    16.0000    0    32.060   -1.359229    2.577218    9.391151
  43 C     6.0000    0    12.011   -7.974419    0.155283    0.379967
  44 C     6.0000    0    12.011   -8.252961   -1.925994    4.780686
  45 C     6.0000    0    12.011   -9.961251    0.347230    5.373147
  46 C     6.0000    0    12.011   -6.413048   -2.233972    6.999113
  47 C     6.0000    0    12.011   -9.827676   -4.383860    4.617918
  48 C     6.0000    0    12.011  -11.832875    0.989701    3.250949
  49 H     1.0000    0     1.008   -8.710914    1.959833    5.726566
  50 H     1.0000    0     1.008  -10.975356   -0.012603    7.143172
  51 C     6.0000    0    12.011  -10.870941    0.142561    0.650550
  52 H     1.0000    0     1.008  -12.185052    3.029477    3.253817
  53 H     1.0000    0     1.008  -13.665092    0.094464    3.609570
  54 C     6.0000    0    12.011   -7.358886   -0.980371   -2.223049
  55 C     6.0000    0    12.011   -7.006479    2.903319    0.378864
  56 H     1.0000    0     1.008  -11.665967    1.352048   -0.830472
  57 H     1.0000    0     1.008  -11.537836   -1.772913    0.238177
  58 H     1.0000    0     1.008   -8.055426   -2.919829   -2.387484
  59 H     1.0000    0     1.008   -5.327372   -0.995901   -2.596586
  60 H     1.0000    0     1.008   -8.268368    0.153782   -3.695420
  61 H     1.0000    0     1.008   -7.913733    3.991840   -1.132365
  62 H     1.0000    0     1.008   -4.964740    2.954764    0.060966
  63 H     1.0000    0     1.008   -7.376281    3.849880    2.176740
  64 H     1.0000    0     1.008  -11.140125   -4.380892    3.024720
  65 H     1.0000    0     1.008  -10.931189   -4.648348    6.350548
  66 H     1.0000    0     1.008   -8.586974   -6.025532    4.417027
  67 H     1.0000    0     1.008   -5.109852   -3.808490    6.694927
  68 H     1.0000    0     1.008   -7.463179   -2.604179    8.743606
  69 H     1.0000    0     1.008   -5.303267   -0.513100    7.253585

--------------------------------
INTERNAL COORDINATES (ANGSTROEM)
--------------------------------
 C      0   0   0     0.000000000000     0.00000000     0.00000000
 C      1   0   0     1.413350797932     0.00000000     0.00000000
 C      2   1   0     1.407910382992   117.52518026     0.00000000
 C      3   2   1     1.388590852372   122.49457575   356.23940014
 C      4   3   2     1.391625158799   119.41962998     1.00210868
 C      5   4   3     1.387833889245   119.26913565     1.60865146
 H      3   2   1     1.088061487471   118.59347503   176.95223936
 H      4   3   2     1.086797806142   120.16243009   180.68716400
 H      5   4   3     1.086704833525   120.62130394   180.00467527
 H      6   5   4     1.085938981293   119.82333331   177.15684261
 N      1   2   3     1.428797581601   121.80970520   185.64335237
 B      2   1   3     1.589866323197   123.29011107   179.48213085
 H     12   2   1     4.260217101910   134.86093246   234.35563847
 H     13  12   2     1.775534430346   108.60992689   321.09657164
 H     13  12   2     1.767818154120    52.07214825   342.76573647
 C     14  13  12     2.806710149089   120.06117302   331.65674733
 H     16  14  13     1.094964554199    71.64315248   218.61816940
 H     16  14  13     1.093323922898   168.88317738   128.24833049
 H     16  14  13     1.091311073982    62.58866051    94.96972631
 C     16  14  13     2.506493910915   104.54193948   309.25828393
 H     20  16  14     1.093072418912    90.69144685   170.53344930
 H     20  16  14     1.093977732726    91.43880521   278.94434478
 H     20  16  14     1.093820713289   145.54974847    46.16635437
 C     12   2   1     1.990611856415   111.24804901   115.55004136
 C     24  12   2     1.391998104175   113.42229160   352.52496546
 C     25  24  12     1.407010818302   114.47368012   232.79902233
 H     12   2   1     1.190991417268   122.22529013   359.90693635
 H     12   2   1     1.225758752139   112.34037830   223.85760783
 C     13  12   2     2.146164265892    68.95415770   266.10372916
 C     16  14  13     1.521355470124    80.32452878   334.54030628
 O     29  13  12     1.441437394473    90.25968512   320.81991787
 O     30  16  14     1.442808376970   108.57592859   109.63565005
 B     31  29  13     1.384089029245   106.30500686   114.90764263
 C     29  13  12     1.521812151721    95.60673131   212.46462324
 H     34  29  13     1.093168530781   109.60579136    25.83641326
 H     34  29  13     1.091239747727   111.38345432   145.27335880
 H     34  29  13     1.094937463101   110.77659634   266.62536005
 C     13  12   2     1.092943578063    74.40345424   310.60626547
 H     25  24  12     1.083992819398   121.52156074    51.78472408
 C     26  25  24     1.375467612098   111.46666927   359.01646962
 H     26  25  24     1.082766064725   124.64273891   178.64516430
 H     40  26  25     1.082943329188   126.93154641   179.53037023
 S     40  26  25     1.697079312540   112.76981893     0.15421389
 C     11   1   2     1.484748865397   118.39148731    91.34974930
 C     11   1   2     1.474911540319   118.73291064   257.41758268
 C     45  11   1     1.537057918648   107.73782030   158.98817161
 C     45  11   1     1.533842616342   109.51318003    42.37693258
 C     45  11   1     1.547092564169   114.11119155   282.26350023
 C     46  45  11     1.535477942519   113.79481246    59.07225873
 H     46  45  11     1.095887275020   106.80653763   297.50832126
 H     46  45  11     1.096160467612   109.04244580   182.72263694
 C     49  46  45     1.534161333338   112.16636374   333.60074139
 H     49  46  45     1.095374219721   109.08180618   211.19891031
 H     49  46  45     1.095674668269   110.38783969    95.13913579
 C     44  11   1     1.537738774750   111.74869219    28.92419477
 C     44  11   1     1.541769534400   111.37832941   268.88481837
 H     52  49  46     1.095837983425   110.08646737   207.64823461
 H     52  49  46     1.095261329996   110.01227981    91.28543375
 H     55  44  11     1.093964804901   111.50133565    59.66722777
 H     55  44  11     1.093083450325   111.91600153   298.49906641
 H     55  44  11     1.094941144527   109.27469117   179.02113148
 H     56  44  11     1.096278781747   110.51013048   181.67406782
 H     56  44  11     1.093798599248   110.59136474    62.26413316
 H     56  44  11     1.092861940826   111.86895886   302.56927088
 H     48  45  11     1.092313302776   112.59609046   304.19027048
 H     48  45  11     1.096010166495   110.35057969   183.58368652
 H     48  45  11     1.094102780398   110.47036156    64.92732764
 H     47  45  11     1.093485150109   111.63072512   297.66066907
 H     47  45  11     1.095164532555   110.00221676   177.87786970
 H     47  45  11     1.091923509078   110.31461920    58.15728351

---------------------------
INTERNAL COORDINATES (A.U.)
---------------------------
 C      0   0   0     0.000000000000     0.00000000     0.00000000
 C      1   0   0     2.670845939250     0.00000000     0.00000000
 C      2   1   0     2.660565044959   117.52518026     0.00000000
 C      3   2   1     2.624056423051   122.49457575   356.23940014
 C      4   3   2     2.629790431205   119.41962998     1.00210868
 C      5   4   3     2.622625970047   119.26913565     1.60865146
 H      3   2   1     2.056138228187   118.59347503   176.95223936
 H      4   3   2     2.053750216556   120.16243009   180.68716400
 H      5   4   3     2.053574523770   120.62130394   180.00467527
 H      6   5   4     2.052127272793   119.82333331   177.15684261
 N      1   2   3     2.700036130034   121.80970520   185.64335237
 B      2   1   3     3.004411940387   123.29011107   179.48213085
 H     12   2   1     8.050643593658   134.86093246   234.35563847
 H     13  12   2     3.355273814702   108.60992689   321.09657164
 H     13  12   2     3.340692165861    52.07214825   342.76573647
 C     14  13  12     5.303913519075   120.06117302   331.65674733
 H     16  14  13     2.069183133787    71.64315248   218.61816940
 H     16  14  13     2.066082789942   168.88317738   128.24833049
 H     16  14  13     2.062279056742    62.58866051    94.96972631
 C     16  14  13     4.736587047970   104.54193948   309.25828393
 H     20  16  14     2.065607516286    90.69144685   170.53344930
 H     20  16  14     2.067318311461    91.43880521   278.94434478
 H     20  16  14     2.067021587726   145.54974847    46.16635437
 C     12   2   1     3.761711247560   111.24804901   115.55004136
 C     24  12   2     2.630495195828   113.42229160   352.52496546
 C     25  24  12     2.658865114056   114.47368012   232.79902233
 H     12   2   1     2.250647606486   122.22529013   359.90693635
 H     12   2   1     2.316348347800   112.34037830   223.85760783
 C     13  12   2     4.055662700945    68.95415770   266.10372916
 C     16  14  13     2.874945190878    80.32452878   334.54030628
 O     29  13  12     2.723921914747    90.25968512   320.81991787
 O     30  16  14     2.726512696200   108.57592859   109.63565005
 B     31  29  13     2.615549210237   106.30500686   114.90764263
 C     29  13  12     2.875808194026    95.60673131   212.46462324
 H     34  29  13     2.065789141396   109.60579136    25.83641326
 H     34  29  13     2.062144269654   111.38345432   145.27335880
 H     34  29  13     2.069131939030   110.77659634   266.62536005
 C     13  12   2     2.065364042368    74.40345424   310.60626547
 H     25  24  12     2.048449559799   121.52156074    51.78472408
 C     26  25  24     2.599257092944   111.46666927   359.01646962
 H     26  25  24     2.046131329435   124.64273891   178.64516430
 H     40  26  25     2.046466310722   126.93154641   179.53037023
 S     40  26  25     3.207015128243   112.76981893     0.15421389
 C     11   1   2     2.805768733250   118.39148731    91.34974930
 C     11   1   2     2.787178882962   118.73291064   257.41758268
 C     45  11   1     2.904618518219   107.73782030   158.98817161
 C     45  11   1     2.898542477423   109.51318003    42.37693258
 C     45  11   1     2.923581250105   114.11119155   282.26350023
 C     46  45  11     2.901632796038   113.79481246    59.07225873
 H     46  45  11     2.070926823436   106.80653763   297.50832126
 H     46  45  11     2.071443082617   109.04244580   182.72263694
 C     49  46  45     2.899144765260   112.16636374   333.60074139
 H     49  46  45     2.069957289430   109.08180618   211.19891031
 H     49  46  45     2.070525054903   110.38783969    95.13913579
 C     44  11   1     2.905905149789   111.74869219    28.92419477
 C     44  11   1     2.913522181639   111.37832941   268.88481837
 H     52  49  46     2.070833675823   110.08646737   207.64823461
 H     52  49  46     2.069743958767   110.01227981    91.28543375
 H     55  44  11     2.067293881412   111.50133565    59.66722777
 H     55  44  11     2.065628362636   111.91600153   298.49906641
 H     55  44  11     2.069138895918   109.27469117   179.02113148
 H     56  44  11     2.071666663931   110.51013048   181.67406782
 H     56  44  11     2.066979798245   110.59136474    62.26413316
 H     56  44  11     2.065209770348   111.86895886   302.56927088
 H     48  45  11     2.064172994685   112.59609046   304.19027048
 H     48  45  11     2.071159054670   110.35057969   183.58368652
 H     48  45  11     2.067554617314   110.47036156    64.92732764
 H     47  45  11     2.066387465216   111.63072512   297.66066907
 H     47  45  11     2.069561038112   110.00221676   177.87786970
 H     47  45  11     2.063436391348   110.31461920    58.15728351

Calling /groups/kemi/jmni/software/orca-external-tools/umaclient.sh input_EXT.extinp.tmp -b 127.0.0.1:54973  ... 

Total time:   5.100 seconds

External program completed successfully in 5.134 sec

-------------------------------------------------   --------------------
FINAL SINGLE POINT ENERGY (From external program)     -1629.230390934000
-------------------------------------------------   --------------------


------------------
CARTESIAN GRADIENT
------------------

   1   C   :   -0.002756305    0.001506009    0.000897584
   2   C   :    0.000193069    0.001860330   -0.000572233
   3   C   :    0.000905303    0.001339472    0.000488155
   4   C   :    0.001188349   -0.001428617   -0.000554092
   5   C   :    0.000428521   -0.001640331   -0.000777791
   6   C   :   -0.001560772   -0.001655931   -0.000402636
   7   H   :    0.002521261    0.001229350    0.000291540
   8   H   :    0.002073491   -0.001288952   -0.000646316
   9   H   :   -0.000226170   -0.002312613   -0.001051766
  10   H   :   -0.002262275   -0.001054586   -0.000141369
  11   N   :   -0.000456856   -0.000760150   -0.000512415
  12   B   :    0.006066866    0.000939696    0.002925214
  13   H   :   -0.001489096    0.001199590   -0.000166669
  14   H   :    0.001071674    0.000786392   -0.001651551
  15   H   :   -0.001069581   -0.001272282   -0.001179477
  16   C   :    0.000226924   -0.000521589    0.000258479
  17   H   :    0.001589842    0.001167793   -0.000634087
  18   H   :    0.000882853   -0.001740258   -0.000500487
  19   H   :   -0.000835731   -0.000351850   -0.001846706
  20   C   :   -0.000012627   -0.000597843    0.000169798
  21   H   :    0.000699051   -0.001760418    0.000519366
  22   H   :    0.002027079    0.000828790    0.000407993
  23   H   :   -0.000654570    0.000096581    0.001660703
  24   C   :    0.001168031   -0.001219211   -0.000228409
  25   C   :    0.001771903   -0.000071296   -0.001126238
  26   C   :   -0.001004519   -0.000100606    0.002279422
  27   H   :   -0.003029251    0.001633296   -0.000973097
  28   H   :    0.001617194    0.000900640   -0.000427091
  29   C   :   -0.004161233   -0.001697572    0.002435031
  30   C   :   -0.002678273   -0.002673616    0.000395776
  31   O   :    0.002212127    0.000996363   -0.000979855
  32   O   :    0.001912496    0.000406533    0.000060238
  33   B   :   -0.002214266    0.002244640   -0.006195832
  34   C   :   -0.000215919    0.000598939    0.000027723
  35   H   :   -0.000782273    0.001817107    0.000484864
  36   H   :    0.000373317   -0.000060397    0.002060240
  37   H   :    0.001752128    0.000824637   -0.000769362
  38   C   :   -0.000188266    0.000947663    0.000368298
  39   H   :    0.000725871   -0.001391550   -0.001601348
  40   C   :    0.000132903   -0.003213143    0.003128873
  41   H   :   -0.000123054   -0.002112160    0.001003468
  42   H   :   -0.000973198    0.000204923    0.002283359
  43   S   :   -0.001530564    0.006157923    0.000634983
  44   C   :    0.001377265   -0.000698413    0.001005568
  45   C   :    0.001538617    0.000552042   -0.001125615
  46   C   :   -0.001030212    0.000294799    0.000123060
  47   C   :   -0.000157699   -0.000198440    0.000597198
  48   C   :    0.000057808   -0.000179130    0.000727706
  49   C   :    0.000072130    0.000059064    0.000052442
  50   H   :    0.000871024    0.001455435    0.000696801
  51   H   :   -0.001263071    0.000164056    0.001930409
  52   C   :   -0.000759930    0.000777384    0.000324236
  53   H   :   -0.000558564    0.002138032   -0.000032152
  54   H   :   -0.002050876   -0.000749452    0.000341164
  55   C   :    0.000088949    0.000411089   -0.000411815
  56   C   :   -0.000088164   -0.000050152   -0.000709815
  57   H   :   -0.001339041    0.001109170   -0.001481147
  58   H   :   -0.001060828   -0.002086732   -0.000490827
  59   H   :   -0.000535208   -0.001922096   -0.000603526
  60   H   :    0.001518611   -0.000198688   -0.000645016
  61   H   :   -0.000754829    0.000595117   -0.001998677
  62   H   :   -0.000618791    0.001492219   -0.001250028
  63   H   :    0.001698037    0.000509155   -0.000087022
  64   H   :    0.000011634    0.001301788    0.001478600
  65   H   :   -0.001352562   -0.000303082   -0.001728339
  66   H   :   -0.001352972   -0.000845411    0.001371863
  67   H   :    0.000913457   -0.001862462   -0.000362202
  68   H   :    0.001306609   -0.000947919    0.000158698
  69   H   :   -0.000349866   -0.000294227    0.001984933
  70   H   :    0.000503022    0.000715162    0.000291234

Difference to translation invariance:
           :    0.0000000057    0.0000000063    0.0000000056

Difference to rotation invariance:
           :   -0.0000000058    0.0000000223   -0.0000000094

Norm of the Cartesian gradient     ...    0.0211922816
RMS gradient                       ...    0.0014624064
MAX gradient                       ...    0.0061958320

----------------------------------------------------------------------------
                           ORCA NUMERICAL FREQUENCIES
                              (20-process run)
----------------------------------------------------------------------------

Number of atoms                ... 70
Central differences            ... NOT used
Translation invariance         ... used
Number of displacements        ... 210 - 3
Numerical increment            ... 5.000e-03 bohr
IR-spectrum generation         ... on
Raman-spectrum generation      ... off
Surface Crossing Hessian       ... off

The output will be reduced. Please look at the following files:
SCF program output             ... >input.lastscf
Integral program output        ... >input.lastint
Gradient program output        ... >input.lastgrad
Dipole moment program output   ... >input.lastmom

List of participating nodes    ...  input.hostnames

	<< Calculating gradient on displaced geometry   1 (of 208) >>
	<< Calculating gradient on displaced geometry   4 (of 208) >>
	<< Calculating gradient on displaced geometry   2 (of 208) >>
	<< Calculating gradient on displaced geometry  18 (of 208) >>
	<< Calculating gradient on displaced geometry   9 (of 208) >>
	<< Calculating gradient on displaced geometry  13 (of 208) >>
	<< Calculating gradient on displaced geometry   3 (of 208) >>
	<< Calculating gradient on displaced geometry   5 (of 208) >>
	<< Calculating gradient on displaced geometry   6 (of 208) >>
	<< Calculating gradient on displaced geometry  15 (of 208) >>
	<< Calculating gradient on displaced geometry   8 (of 208) >>
	<< Calculating gradient on displaced geometry  14 (of 208) >>
	<< Calculating gradient on displaced geometry  12 (of 208) >>
	<< Calculating gradient on displaced geometry  17 (of 208) >>
	<< Calculating gradient on displaced geometry  10 (of 208) >>
	<< Calculating gradient on displaced geometry  16 (of 208) >>
	<< Calculating gradient on displaced geometry  19 (of 208) >>
	<< Calculating gradient on displaced geometry  20 (of 208) >>
	<< Calculating gradient on displaced geometry   7 (of 208) >>
	<< Calculating gradient on displaced geometry  11 (of 208) >>
	<< Calculating gradient on displaced geometry  21 (of 208) >>
	<< Calculating gradient on displaced geometry  22 (of 208) >>
	<< Calculating gradient on displaced geometry  23 (of 208) >>
	<< Calculating gradient on displaced geometry  24 (of 208) >>
	<< Calculating gradient on displaced geometry  25 (of 208) >>
	<< Calculating gradient on displaced geometry  26 (of 208) >>
	<< Calculating gradient on displaced geometry  27 (of 208) >>
	<< Calculating gradient on displaced geometry  28 (of 208) >>
	<< Calculating gradient on displaced geometry  29 (of 208) >>
	<< Calculating gradient on displaced geometry  30 (of 208) >>
	<< Calculating gradient on displaced geometry  31 (of 208) >>
	<< Calculating gradient on displaced geometry  32 (of 208) >>
	<< Calculating gradient on displaced geometry  33 (of 208) >>
	<< Calculating gradient on displaced geometry  34 (of 208) >>
	<< Calculating gradient on displaced geometry  35 (of 208) >>
	<< Calculating gradient on displaced geometry  36 (of 208) >>
	<< Calculating gradient on displaced geometry  37 (of 208) >>
	<< Calculating gradient on displaced geometry  38 (of 208) >>
	<< Calculating gradient on displaced geometry  39 (of 208) >>
	<< Calculating gradient on displaced geometry  40 (of 208) >>
	<< Calculating gradient on displaced geometry  41 (of 208) >>
	<< Calculating gradient on displaced geometry  42 (of 208) >>
	<< Calculating gradient on displaced geometry  43 (of 208) >>
	<< Calculating gradient on displaced geometry  44 (of 208) >>
	<< Calculating gradient on displaced geometry  45 (of 208) >>
	<< Calculating gradient on displaced geometry  46 (of 208) >>
	<< Calculating gradient on displaced geometry  47 (of 208) >>
	<< Calculating gradient on displaced geometry  48 (of 208) >>
	<< Calculating gradient on displaced geometry  49 (of 208) >>
	<< Calculating gradient on displaced geometry  50 (of 208) >>
	<< Calculating gradient on displaced geometry  51 (of 208) >>
	<< Calculating gradient on displaced geometry  52 (of 208) >>
	<< Calculating gradient on displaced geometry  53 (of 208) >>
	<< Calculating gradient on displaced geometry  54 (of 208) >>
	<< Calculating gradient on displaced geometry  55 (of 208) >>
	<< Calculating gradient on displaced geometry  56 (of 208) >>
	<< Calculating gradient on displaced geometry  57 (of 208) >>
	<< Calculating gradient on displaced geometry  58 (of 208) >>
	<< Calculating gradient on displaced geometry  59 (of 208) >>
	<< Calculating gradient on displaced geometry  60 (of 208) >>
	<< Calculating gradient on displaced geometry  61 (of 208) >>
	<< Calculating gradient on displaced geometry  62 (of 208) >>
	<< Calculating gradient on displaced geometry  63 (of 208) >>
	<< Calculating gradient on displaced geometry  64 (of 208) >>
	<< Calculating gradient on displaced geometry  65 (of 208) >>
	<< Calculating gradient on displaced geometry  66 (of 208) >>
	<< Calculating gradient on displaced geometry  67 (of 208) >>
	<< Calculating gradient on displaced geometry  68 (of 208) >>
	<< Calculating gradient on displaced geometry  69 (of 208) >>
	<< Calculating gradient on displaced geometry  70 (of 208) >>
	<< Calculating gradient on displaced geometry  71 (of 208) >>
	<< Calculating gradient on displaced geometry  72 (of 208) >>
	<< Calculating gradient on displaced geometry  73 (of 208) >>
	<< Calculating gradient on displaced geometry  74 (of 208) >>
	<< Calculating gradient on displaced geometry  75 (of 208) >>
	<< Calculating gradient on displaced geometry  76 (of 208) >>
	<< Calculating gradient on displaced geometry  77 (of 208) >>
	<< Calculating gradient on displaced geometry  78 (of 208) >>
	<< Calculating gradient on displaced geometry  79 (of 208) >>
	<< Calculating gradient on displaced geometry  80 (of 208) >>
	<< Calculating gradient on displaced geometry  81 (of 208) >>
	<< Calculating gradient on displaced geometry  82 (of 208) >>
	<< Calculating gradient on displaced geometry  83 (of 208) >>
	<< Calculating gradient on displaced geometry  84 (of 208) >>
	<< Calculating gradient on displaced geometry  85 (of 208) >>
	<< Calculating gradient on displaced geometry  86 (of 208) >>
	<< Calculating gradient on displaced geometry  87 (of 208) >>
	<< Calculating gradient on displaced geometry  88 (of 208) >>
	<< Calculating gradient on displaced geometry  89 (of 208) >>
	<< Calculating gradient on displaced geometry  90 (of 208) >>
	<< Calculating gradient on displaced geometry  91 (of 208) >>
	<< Calculating gradient on displaced geometry  92 (of 208) >>
	<< Calculating gradient on displaced geometry  93 (of 208) >>
	<< Calculating gradient on displaced geometry  94 (of 208) >>
	<< Calculating gradient on displaced geometry  95 (of 208) >>
	<< Calculating gradient on displaced geometry  96 (of 208) >>
	<< Calculating gradient on displaced geometry  97 (of 208) >>
	<< Calculating gradient on displaced geometry  98 (of 208) >>
	<< Calculating gradient on displaced geometry  99 (of 208) >>
	<< Calculating gradient on displaced geometry 100 (of 208) >>
	<< Calculating gradient on displaced geometry 101 (of 208) >>
	<< Calculating gradient on displaced geometry 102 (of 208) >>
	<< Calculating gradient on displaced geometry 103 (of 208) >>
	<< Calculating gradient on displaced geometry 104 (of 208) >>
	<< Calculating gradient on displaced geometry 105 (of 208) >>
	<< Calculating gradient on displaced geometry 106 (of 208) >>
	<< Calculating gradient on displaced geometry 107 (of 208) >>
	<< Calculating gradient on displaced geometry 108 (of 208) >>
	<< Calculating gradient on displaced geometry 109 (of 208) >>
	<< Calculating gradient on displaced geometry 110 (of 208) >>
	<< Calculating gradient on displaced geometry 111 (of 208) >>
	<< Calculating gradient on displaced geometry 112 (of 208) >>
	<< Calculating gradient on displaced geometry 113 (of 208) >>
	<< Calculating gradient on displaced geometry 114 (of 208) >>
	<< Calculating gradient on displaced geometry 115 (of 208) >>
	<< Calculating gradient on displaced geometry 116 (of 208) >>
	<< Calculating gradient on displaced geometry 117 (of 208) >>
	<< Calculating gradient on displaced geometry 118 (of 208) >>
	<< Calculating gradient on displaced geometry 119 (of 208) >>
	<< Calculating gradient on displaced geometry 120 (of 208) >>
	<< Calculating gradient on displaced geometry 121 (of 208) >>
	<< Calculating gradient on displaced geometry 122 (of 208) >>
	<< Calculating gradient on displaced geometry 123 (of 208) >>
	<< Calculating gradient on displaced geometry 124 (of 208) >>
	<< Calculating gradient on displaced geometry 125 (of 208) >>
	<< Calculating gradient on displaced geometry 126 (of 208) >>
	<< Calculating gradient on displaced geometry 127 (of 208) >>
	<< Calculating gradient on displaced geometry 128 (of 208) >>
	<< Calculating gradient on displaced geometry 129 (of 208) >>
	<< Calculating gradient on displaced geometry 130 (of 208) >>
	<< Calculating gradient on displaced geometry 131 (of 208) >>
	<< Calculating gradient on displaced geometry 132 (of 208) >>
	<< Calculating gradient on displaced geometry 133 (of 208) >>
	<< Calculating gradient on displaced geometry 134 (of 208) >>
	<< Calculating gradient on displaced geometry 135 (of 208) >>
	<< Calculating gradient on displaced geometry 136 (of 208) >>
	<< Calculating gradient on displaced geometry 137 (of 208) >>
	<< Calculating gradient on displaced geometry 138 (of 208) >>
	<< Calculating gradient on displaced geometry 139 (of 208) >>
	<< Calculating gradient on displaced geometry 140 (of 208) >>
	<< Calculating gradient on displaced geometry 141 (of 208) >>
	<< Calculating gradient on displaced geometry 142 (of 208) >>
	<< Calculating gradient on displaced geometry 143 (of 208) >>
	<< Calculating gradient on displaced geometry 144 (of 208) >>
	<< Calculating gradient on displaced geometry 145 (of 208) >>
	<< Calculating gradient on displaced geometry 146 (of 208) >>
	<< Calculating gradient on displaced geometry 147 (of 208) >>
	<< Calculating gradient on displaced geometry 148 (of 208) >>
	<< Calculating gradient on displaced geometry 149 (of 208) >>
	<< Calculating gradient on displaced geometry 150 (of 208) >>
	<< Calculating gradient on displaced geometry 151 (of 208) >>
	<< Calculating gradient on displaced geometry 152 (of 208) >>
	<< Calculating gradient on displaced geometry 153 (of 208) >>
	<< Calculating gradient on displaced geometry 154 (of 208) >>
	<< Calculating gradient on displaced geometry 155 (of 208) >>
	<< Calculating gradient on displaced geometry 156 (of 208) >>
	<< Calculating gradient on displaced geometry 157 (of 208) >>
	<< Calculating gradient on displaced geometry 158 (of 208) >>
	<< Calculating gradient on displaced geometry 159 (of 208) >>
	<< Calculating gradient on displaced geometry 160 (of 208) >>
	<< Calculating gradient on displaced geometry 161 (of 208) >>
	<< Calculating gradient on displaced geometry 162 (of 208) >>
	<< Calculating gradient on displaced geometry 163 (of 208) >>
[...]
   370. D(H  61,C  55,C  43,C  54)     60.51  0.000020   -0.53     59.98   
   371. D(H  61,C  55,C  43,C  51)    -55.48  0.000041   -0.52    -56.00   
   372. D(H  61,C  55,C  43,N  10)   -176.97  0.000033   -0.52   -177.49   
    ----------------------------------------------------------------------------

Geometry step timings:
Preparation and reading OPT file:      0.000 s ( 0.085 %)
Internal coordinates            :      0.000 s ( 0.185 %)
B/P matrices and projection     :      0.015 s (45.357 %)
Hessian update/contruction      :      0.005 s (13.620 %)
Making the step                 :      0.011 s (33.578 %)
Converting the step to Cartesian:      0.001 s ( 3.745 %)
Storing new data                :      0.000 s ( 0.094 %)
Checking convergence            :      0.000 s ( 0.109 %)
Final printing                  :      0.001 s ( 3.227 %)
Total time                      :      0.034 s

Time for energy+gradient        :      0.702 s
Time for complete geometry iter :      0.966 s

         *************************************************************
         *                GEOMETRY OPTIMIZATION CYCLE   6            *
         *************************************************************
---------------------------------
CARTESIAN COORDINATES (ANGSTROEM)
---------------------------------
  C     -2.406321   -1.412407    1.015521
  C     -1.132659   -0.866378    1.250363
  C     -0.019476   -1.622303    0.850529
  C     -0.138786   -2.889644    0.307709
  C     -1.400567   -3.439166    0.126947
  C     -2.515250   -2.694498    0.467093
  H      0.970579   -1.198561    0.976817
  H      0.746680   -3.443652    0.020377
  H     -1.515989   -4.429069   -0.296983
  H     -3.504537   -3.095922    0.288506
  N     -3.595521   -0.679161    1.306685
  B     -0.918402    0.556759    1.925248
  H      1.135849    4.077265    0.697311
  H      2.712574    3.638459    0.020674
  H      1.411409    2.439884    0.093245
  C      3.996128    1.311132    0.827958
  H      4.741685    2.103312    0.732346
  H      4.521069    0.361693    0.936320
  H      3.404599    1.272547   -0.084397
  C      3.924351    1.369965    3.324845
  H      4.281307    0.340970    3.372229
  H      4.786379    2.037648    3.354531
  H      3.302891    1.558643    4.201669
  C     -0.076416    0.408453    3.569378
  C      0.200934   -0.867280    4.062489
  C     -0.154273   -1.061528    5.399052
  H     -1.815303    1.281961    2.202507
  H     -0.079980    1.205026    1.292349
  C      2.323016    2.885757    2.018359
  C      3.121120    1.549001    2.042871
  O      1.147526    2.545739    2.789863
  O      2.069468    0.555923    2.059476
  B      0.944886    1.185632    2.588733
  C      3.018027    4.051179    2.693491
  H      2.394369    4.941999    2.615457
  H      3.195512    3.849663    3.747774
  H      3.973071    4.260295    2.207044
  C      1.872672    3.277931    0.616072
  H      0.647528   -1.628683    3.438852
  C     -0.701789    0.081599    5.942301
  H     -0.025204   -1.984342    5.944040
  H     -1.065941    0.203544    6.951370
  S     -0.775502    1.357110    4.849283
  C     -4.224312    0.115596    0.224982
  C     -4.341671   -1.019711    2.528970
  C     -5.247266    0.168162    2.860194
  C     -3.359891   -1.193235    3.688262
  C     -5.167110   -2.318168    2.437198
  C     -6.256449    0.491651    1.754296
  H     -4.594072    1.026428    3.036352
  H     -5.764870   -0.033084    3.801359
  C     -5.749448    0.072831    0.371602
  H     -6.471645    1.562094    1.769333
  H     -7.206395   -0.010784    1.950144
  C     -3.886457   -0.444001   -1.160098
  C     -3.747492    1.576626    0.254310
  H     -6.182623    0.714913   -0.398865
  H     -6.079871   -0.941377    0.140186
  H     -4.247424   -1.466476   -1.277545
  H     -2.812352   -0.437341   -1.348487
  H     -4.366839    0.177178   -1.918598
  H     -4.256000    2.154505   -0.522203
  H     -2.674563    1.631005    0.069202
  H     -3.941168    2.046558    1.218116
  H     -5.874535   -2.310292    1.609728
  H     -5.731596   -2.463128    3.361899
  H     -4.509970   -3.180153    2.315451
  H     -2.675599   -2.024254    3.510126
  H     -3.910554   -1.399487    4.608819
  H     -2.775511   -0.283774    3.826046

----------------------------
CARTESIAN COORDINATES (A.U.)
----------------------------
  NO LB      ZA    FRAG     MASS         X           Y           Z
   0 C     6.0000    0    12.011   -4.547288   -2.669062    1.919057
   1 C     6.0000    0    12.011   -2.140416   -1.637217    2.362844
   2 C     6.0000    0    12.011   -0.036804   -3.065709    1.607267
   3 C     6.0000    0    12.011   -0.262267   -5.460635    0.581486
   4 C     6.0000    0    12.011   -2.646687   -6.499083    0.239896
   5 C     6.0000    0    12.011   -4.753134   -5.091863    0.882678
   6 H     1.0000    0     1.008    1.834128   -2.264953    1.845916
   7 H     1.0000    0     1.008    1.411021   -6.507558    0.038507
   8 H     1.0000    0     1.008   -2.864804   -8.369727   -0.561217
   9 H     1.0000    0     1.008   -6.622615   -5.850445    0.545198
  10 N     7.0000    0    14.007   -6.794550   -1.283428    2.469277
  11 B     5.0000    0    10.810   -1.735529    1.052121    3.638191
  12 H     1.0000    0     1.008    2.146444    7.704915    1.317727
  13 H     1.0000    0     1.008    5.126022    6.875690    0.039068
  14 H     1.0000    0     1.008    2.667177    4.610712    0.176208
  15 C     6.0000    0    12.011    7.551588    2.477680    1.564614
  16 H     1.0000    0     1.008    8.960487    3.974684    1.383934
  17 H     1.0000    0     1.008    8.543583    0.683501    1.769388
  18 H     1.0000    0     1.008    6.433760    2.404765   -0.159487
  19 C     6.0000    0    12.011    7.415949    2.588859    6.283046
  20 H     1.0000    0     1.008    8.090498    0.644340    6.372589
  21 H     1.0000    0     1.008    9.044945    3.850596    6.339144
  22 H     1.0000    0     1.008    6.241560    2.945408    7.940003
  23 C     6.0000    0    12.011   -0.144406    0.771864    6.745148
  24 C     6.0000    0    12.011    0.379711   -1.638922    7.676991
  25 C     6.0000    0    12.011   -0.291534   -2.005998   10.202729
  26 H     1.0000    0     1.008   -3.430426    2.422556    4.162134
  27 H     1.0000    0     1.008   -0.151140    2.277169    2.442186
  28 C     6.0000    0    12.011    4.389864    5.453290    3.814145
  29 C     6.0000    0    12.011    5.898063    2.927187    3.860466
  30 O     8.0000    0    15.999    2.168510    4.810750    5.272077
  31 O     8.0000    0    15.999    3.910728    1.050543    3.891845
  32 B     5.0000    0    10.810    1.785576    2.240520    4.891996
  33 C     6.0000    0    12.011    5.703244    7.655619    5.089960
  34 H     1.0000    0     1.008    4.524702    9.339026    4.942497
  35 H     1.0000    0     1.008    6.038642    7.274808    7.082266
  36 H     1.0000    0     1.008    7.508017    8.050792    4.170708
  37 C     6.0000    0    12.011    3.538836    6.194391    1.164208
  38 H     1.0000    0     1.008    1.223651   -3.077764    6.498488
  39 C     6.0000    0    12.011   -1.326188    0.154200   11.229322
  40 H     1.0000    0     1.008   -0.047628   -3.749864   11.232608
  41 H     1.0000    0     1.008   -2.014337    0.384642   13.136185
  42 S    16.0000    0    32.060   -1.465485    2.564567    9.163816
  43 C     6.0000    0    12.011   -7.982793    0.218444    0.425154
  44 C     6.0000    0    12.011   -8.204569   -1.926974    4.779060
  45 C     6.0000    0    12.011   -9.915896    0.317780    5.404982
  46 C     6.0000    0    12.011   -6.349273   -2.254888    6.969805
  47 C     6.0000    0    12.011   -9.764422   -4.380702    4.605638
  48 C     6.0000    0    12.011  -11.822975    0.929086    3.315139
  49 H     1.0000    0     1.008   -8.681538    1.939668    5.737873
  50 H     1.0000    0     1.008  -10.894026   -0.062519    7.183528
  51 C     6.0000    0    12.011  -10.864881    0.137630    0.702226
  52 H     1.0000    0     1.008  -12.229636    2.951930    3.343555
  53 H     1.0000    0     1.008  -13.618113   -0.020378    3.685237
  54 C     6.0000    0    12.011   -7.344340   -0.839040   -2.192267
  55 C     6.0000    0    12.011   -7.081734    2.979391    0.480577
  56 H     1.0000    0     1.008  -11.683464    1.350990   -0.753746
  57 H     1.0000    0     1.008  -11.489291   -1.778945    0.264913
  58 H     1.0000    0     1.008   -8.026467   -2.771238   -2.414211
  59 H     1.0000    0     1.008   -5.314575   -0.826455   -2.548272
  60 H     1.0000    0     1.008   -8.252131    0.334817   -3.625625
  61 H     1.0000    0     1.008   -8.042675    4.071425   -0.986820
  62 H     1.0000    0     1.008   -5.054192    3.082153    0.130772
  63 H     1.0000    0     1.008   -7.447728    3.867434    2.301906
  64 H     1.0000    0     1.008  -11.101263   -4.365819    3.041946
  65 H     1.0000    0     1.008  -10.831148   -4.654638    6.353069
  66 H     1.0000    0     1.008   -8.522608   -6.009617    4.375569
  67 H     1.0000    0     1.008   -5.056150   -3.825285    6.633177
  68 H     1.0000    0     1.008   -7.389877   -2.644647    8.709406
  69 H     1.0000    0     1.008   -5.244956   -0.536254    7.230179

--------------------------------
INTERNAL COORDINATES (ANGSTROEM)
--------------------------------
 C      0   0   0     0.000000000000     0.00000000     0.00000000
 C      1   0   0     1.405529510647     0.00000000     0.00000000
 C      2   1   0     1.403733692898   117.50457301     0.00000000
 C      3   2   1     1.383849638867   122.44771370   356.65411130
 C      4   3   2     1.388071104733   119.47288370     1.00305666
 C      5   4   3     1.383021992133   119.17363945     1.40433869
 H      3   2   1     1.084303513826   118.71568846   176.97481741
 H      4   3   2     1.083297576777   120.12722548   180.56956251
 H      5   4   3     1.083026249348   120.64387996   179.94673386
 H      6   5   4     1.082461275829   119.75874387   177.24270963
 N      1   2   3     1.427102379951   121.42773799   184.20616959
 B      2   1   3     1.589557202708   122.74471328   179.31317900
 H     12   2   1     4.256964404730   133.07776407   236.29198487
 H     13  12   2     1.771002699415   109.56800523   315.72674469
 H     13  12   2     1.766874826637    53.66457658   338.95056071
 C     14  13  12     2.777709090809   120.52800866   333.11109837
 H     16  14  13     1.092037994638    71.47240928   220.29448313
 H     16  14  13     1.090293192640   168.80810066   130.30254809
 H     16  14  13     1.088019911473    62.27554386    96.13164469
 C     16  14  13     2.498610898036   104.91738628   310.80883280
 H     20  16  14     1.090180453921    90.67630105   170.06091411
 H     20  16  14     1.090767128766    91.08337741   278.61026454
 H     20  16  14     1.091160495940   145.43144665    45.17586596
 C     12   2   1     1.853132811712   111.48645658   115.00022886
 C     24  12   2     1.395555617038   118.48631612   356.49804845
 C     25  24  12     1.396533323767   114.50491982   226.86049926
 H     12   2   1     1.186264358610   123.00082464   355.47436981
 H     12   2   1     1.234408482732   110.12366194   226.08631571
 C     13  12   2     2.138743873072    68.22033568   262.22991874
 C     16  14  13     1.515992346175    80.48722499   335.81689343
 O     29  13  12     1.446584352570    90.53382761   322.52100026
 O     30  16  14     1.446530529070   108.72962076   108.45448814
 B     31  29  13     1.389750715275   105.74367550   112.76162646
 C     29  13  12     1.515603077341    95.81406441   213.95509769
 H     34  29  13     1.090228961106   109.51777099    24.86136627
 H     34  29  13     1.087944058361   111.34927428   144.61528154
 H     34  29  13     1.092003319335   110.47971236   265.80467158
 C     15  13  12     1.090152916088    35.86723406   242.02080072
 H     25  24  12     1.080787875680   121.48232403    46.40114968
 C     26  25  24     1.378997444092   111.26690059   359.53996318
 H     26  25  24     1.079470683425   124.86759279   179.28189649
 H     40  26  25     1.079674261174   126.56419401   179.55646305
 S     40  26  25     1.681383852104   112.96485166   359.85961389
 C     11   1   2     1.482261370786   118.69141981    93.65478264
 C     11   1   2     1.471969616816   118.22585877   257.41009485
 C     45  11   1     1.529984589141   107.46833537   160.93122971
 C     45  11   1     1.529039618150   109.29014560    44.32712527
 C     45  11   1     1.541350581773   114.64036322   284.15949505
 C     46  45  11     1.531700219492   113.43111496    60.28931619
 H     46  45  11     1.092847011861   106.90944874   298.69004434
 H     46  45  11     1.092797748063   108.89433992   183.65301103
 C     49  46  45     1.531111526478   112.09087734   332.39814845
 H     49  46  45     1.091963246359   109.08284583   210.03008782
 H     49  46  45     1.092334353279   110.26647517    93.91073524
 C     44  11   1     1.531580697750   111.74514011    25.74445423
 C     44  11   1     1.537148975467   111.35307339   265.86191931
 H     52  49  46     1.092488408817   110.17061275   208.42849304
 H     52  49  46     1.091489849963   110.20597679    91.73959373
 H     55  44  11     1.090662787996   111.52491747    60.94687854
 H     55  44  11     1.090521535270   111.79383034   299.60210790
 H     55  44  11     1.091765681946   108.86535377   180.30649322
 H     56  44  11     1.093388088049   110.15335882   182.50672332
 H     56  44  11     1.090137280128   110.45514123    63.15206000
 H     56  44  11     1.089618161995   111.81833971   303.25877114
 H     48  45  11     1.088677996556   112.77715858   303.68709295
 H     48  45  11     1.093037222788   109.75025132   183.28034589
 H     48  45  11     1.090721203363   110.47205174    64.91135113
 H     47  45  11     1.091136443463   111.42793999   296.93159710
 H     47  45  11     1.092334909087   109.67555558   177.33311907
 H     47  45  11     1.089772691135   110.21017052    57.64355819

---------------------------
INTERNAL COORDINATES (A.U.)
---------------------------
 C      0   0   0     0.000000000000     0.00000000     0.00000000
 C      1   0   0     2.656065848268     0.00000000     0.00000000
 C      2   1   0     2.652672244534   117.50457301     0.00000000
 C      3   2   1     2.615096827984   122.44771370   356.65411130
 C      4   3   2     2.623074242355   119.47288370     1.00305666
 C      5   4   3     2.613532802321   119.17363945     1.40433869
 H      3   2   1     2.049036687180   118.71568846   176.97481741
 H      4   3   2     2.047135741650   120.12722548   180.56956251
 H      5   4   3     2.046623007116   120.64387996   179.94673386
 H      6   5   4     2.045555361893   119.75874387   177.24270963
 N      1   2   3     2.696832663175   121.42773799   184.20616959
 B      2   1   3     3.003827787320   122.74471328   179.31317900
 H     12   2   1     8.044496886791   133.07776407   236.29198487
 H     13  12   2     3.346710084329   109.56800523   315.72674469
 H     13  12   2     3.338909535263    53.66457658   338.95056071
 C     14  13  12     5.249109461332   120.52800866   333.11109837
 H     16  14  13     2.063652737703    71.47240928   220.29448313
 H     16  14  13     2.060355539768   168.80810066   130.30254809
 H     16  14  13     2.056059660938    62.27554386    96.13164469
 C     16  14  13     4.721690312520   104.91738628   310.80883280
 H     20  16  14     2.060142494465    90.67630105   170.06091411
 H     20  16  14     2.061251149252    91.08337741   278.61026454
 H     20  16  14     2.061994505480   145.43144665    45.17586596
 C     12   2   1     3.501913503920   111.48645658   115.00022886
 C     24  12   2     2.637217920858   118.48631612   356.49804845
 C     25  24  12     2.639065518814   114.50491982   226.86049926
 H     12   2   1     2.241714760205   123.00082464   355.47436981
 H     12   2   1     2.332693969753   110.12366194   226.08631571
 C     13  12   2     4.041640190709    68.22033568   262.22991874
 C     16  14  13     2.864810355391    80.48722499   335.81689343
 O     29  13  12     2.733648255974    90.53382761   322.52100026
 O     30  16  14     2.733546544298   108.72962076   108.45448814
 B     31  29  13     2.626248246291   105.74367550   112.76162646
 C     29  13  12     2.864074743903    95.81406441   213.95509769
 H     34  29  13     2.060234159760   109.51777099    24.86136627
 H     34  29  13     2.055916319329   111.34927428   144.61528154
 H     34  29  13     2.063587210876   110.47971236   265.80467158
 C     15  13  12     2.060090455502    35.86723406   242.02080072
 H     25  24  12     2.042393093897   121.48232403    46.40114968
 C     26  25  24     2.605927508711   111.26690059   359.53996318
 H     26  25  24     2.039903961269   124.86759279   179.28189649
 H     40  26  25     2.040288667463   126.56419401   179.55646305
 S     40  26  25     3.177355006474   112.96485166   359.85961389
 C     11   1   2     2.801068049677   118.69141981    93.65478264
 C     11   1   2     2.781619453236   118.22585877   257.41009485
 C     45  11   1     2.891251862596   107.46833537   160.93122971
 C     45  11   1     2.889466126220   109.29014560    44.32712527
 C     45  11   1     2.912730475912   114.64036322   284.15949505
 C     46  45  11     2.894493934107   113.43111496    60.28931619
 H     46  45  11     2.065181558692   106.90944874   298.69004434
 H     46  45  11     2.065088463605   108.89433992   183.65301103
 C     49  46  45     2.893381465534   112.09087734   332.39814845
 H     49  46  45     2.063511483927   109.08284583   210.03008782
 H     49  46  45     2.064212774370   110.26647517    93.91073524
 C     44  11   1     2.894268070747   111.74514011    25.74445423
 C     44  11   1     2.904790590671   111.35307339   265.86191931
 H     52  49  46     2.064503897147   110.17061275   208.42849304
 H     52  49  46     2.062616894384   110.20597679    91.73959373
 H     55  44  11     2.061053973772   111.52491747    60.94687854
 H     55  44  11     2.060787044804   111.79383034   299.60210790
 H     55  44  11     2.063138141292   108.86535377   180.30649322
 H     56  44  11     2.066204044505   110.15335882   182.50672332
 H     56  44  11     2.060060907819   110.45514123    63.15206000
 H     56  44  11     2.059079916717   111.81833971   303.25877114
 H     48  45  11     2.057303261517   112.77715858   303.68709295
 H     48  45  11     2.065541005252   109.75025132   183.28034589
 H     48  45  11     2.061164362816   110.47205174    64.91135113
 H     47  45  11     2.061949052885   111.42793999   296.93159710
 H     47  45  11     2.064213824695   109.67555558   177.33311907
 H     47  45  11     2.059371934471   110.21017052    57.64355819

Calling /groups/kemi/jmni/software/orca-external-tools/umaclient.sh input_EXT.extinp.tmp -b 127.0.0.1:54973  > input.lastext ...  done

External program completed successfully in 0.932 sec

----------------------------------------------------------------------------
                           ORCA NUMERICAL FREQUENCIES
                              (20-process run)
----------------------------------------------------------------------------

Number of atoms                ... 70
Central differences            ... NOT used
Translation invariance         ... used
Number of displacements        ... 210 - 3
Numerical increment            ... 5.000e-03 bohr
IR-spectrum generation         ... on
Raman-spectrum generation      ... off
Surface Crossing Hessian       ... off

The output will be reduced. Please look at the following files:
SCF program output             ... >input.lastscf
Integral program output        ... >input.lastint
Gradient program output        ... >input.lastgrad
Dipole moment program output   ... >input.lastmom

[file orca_numfreq/numfreq_utils.cpp, line 556]: ERROR (ORCA_NUMCALC): Cannot open input.hostnames

