
                                 *****************
                                 * O   R   C   A *
                                 *****************

                                            #,                                       
                                            ###                                      
                                            ####                                     
                                            #####                                    
                                            ######                                   
                                           ########,                                 
                                     ,,################,,,,,                         
                               ,,#################################,,                 
                          ,,##########################################,,             
                       ,#########################################, ''#####,          
                    ,#############################################,,   '####,        
                  ,##################################################,,,,####,       
                ,###########''''           ''''###############################       
              ,#####''   ,,,,##########,,,,          '''####'''          '####       
            ,##' ,,,,###########################,,,                        '##       
           ' ,,###''''                  '''############,,,                           
         ,,##''                                '''############,,,,        ,,,,,,###''
      ,#''                                            '''#######################'''  
     '                                                          ''''####''''         
             ,#######,   #######,   ,#######,      ##                                
            ,#'     '#,  ##    ##  ,#'     '#,    #''#        ,####,   ,####,        
            ##       ##  ##   ,#'  ##            #'  '#       #'       #'  '#        
            ##       ##  #######   ##           ,######,      #####,   #    #        
            '#,     ,#'  ##    ##  '#,     ,#' ,#      #,     #,   #   #,  ,#        
             '#######'   ##     ##  '#######'  #'      '#     '####' # '####'        



                #########################################################
                #                        -***-                          #
                #          Department of theory and spectroscopy        #
                #                                                       #
                #                      Frank Neese                      #
                #                                                       #
                #     Directorship, Architecture, Infrastructure        #
                #                    SHARK, DRIVERS                     #
                #        Core code/Algorithms in most modules           #
                #                                                       #
                #        Max Planck Institute fuer Kohlenforschung      #
                #                Kaiser Wilhelm Platz 1                 #
                #                 D-45470 Muelheim/Ruhr                 #
                #                      Germany                          #
                #                                                       #
                #                  All rights reserved                  #
                #                        -***-                          #
                #########################################################


                         Program Version 6.0.1  -  RELEASE   -


 With contributions from (in alphabetic order):
[Max-Planck-Institut fuer Kohlenforschung]                               
  Daniel Aravena         : Magnetic Suceptibility                        
  Michael Atanasov       : Ab Initio Ligand Field Theory (pilot matlab implementation)
  Alexander A. Auer      : GIAO ZORA, VPT2 properties, NMR spectrum      
  Ute Becker             : All parallelization in ORCA, NUMFREQ, NUMCALC 
  Giovanni Bistoni       : ED, misc. LED, open-shell LED, HFLD           
  Martin Brehm           : Molecular dynamics                            
  Dmytro Bykov           : pre 5.0 version of the SCF Hessian            
  Marcos Casanova-Páez   : Triplet and SCS-CIS(D). UHF-(DLPNO)-IP/EA/STEOM-CCSD. UHF-CVS-IP/STEOM-CCSD   
  Vijay G. Chilkuri      : MRCI spin determinant printing, contributions to CSF-ICE 
  Pauline Colinet        : FMM embedding                                 
  Dipayan Datta          : RHF DLPNO-CCSD density                        
  Achintya Kumar Dutta   : EOM-CC, STEOM-CC                              
  Nicolas Foglia         : Exact transition moments, OPA infrastructure, MCD improvements    
  Dmitry Ganyushin       : Spin-Orbit,Spin-Spin,Magnetic field MRCI      
  Miquel Garcia-Rates    : C-PCM and meta-GGA Hessian, CCSD/C-PCM, Gaussian charge scheme 
  Tiago L. C. Gouveia    : GS-ROHF, GS-ROCIS                             
  Yang Guo               : DLPNO-NEVPT2, F12-NEVPT2, CIM, IAO-localization        
  Andreas Hansen         : Spin unrestricted coupled pair/coupled cluster methods 
  Ingolf Harden          : AUTO-CI MPn and infrastructure                
  Benjamin Helmich-Paris : MC-RPA, TRAH-(SCF,CASSCF), AVAS, COSX integrals, SCF dyn. polar. 
  Lee Huntington         : MR-EOM, pCC                                   
  Robert Izsak           : Overlap fitted RIJCOSX, COSX-SCS-MP3, EOM     
  Riya Kayal             : Wick's Theorem for AUTO-CI, AUTO-CI UHF-CCSDT 
  Emily Kempfer          : AUTO-CI, RHF CISDT and CCSDT                  
  Christian Kollmar      : KDIIS, OOCD, Brueckner-CCSD(T), CCSD density, CASPT2, CASPT2-K, improved NEVPT2 
  Axel Koslowski         : Symmetry handling                             
  Simone Kossmann        : meta-GGA functionals, TD-DFT gradient, OOMP2, (MP2 Hessian; deprecated post 5.0) 
  Lucas Lang             : DCDCAS                                        
  Marvin Lechner         : AUTO-CI (C++ implementation), FIC-MRCC        
  Spencer Leger          : CASSCF response                               
  Dagmar Lenk            : GEPOL surface, SMD, ORCA-2-JSON               
  Dimitrios Liakos       : Extrapolation schemes; Compound Job, initial MDCI parallelization 
  Dimitrios Manganas     : Further ROCIS development; embedding schemes. LFT, Crystal Embedding 
  Dimitrios Pantazis     : SARC Basis sets                               
  Anastasios Papadopoulos: AUTO-CI, single reference methods and gradients 
  Taras Petrenko         : pre 6.0 DFT Hessian and TD-DFT gradient, (ASA, deprecated), ECA, 1-Electron XAS/XES, NRVS 
  Peter Pinski           : DLPNO-MP2, DLPNO-MP2 Gradient                 
  Christoph Reimann      : Effective Core Potentials                     
  Marius Retegan         : Local ZFS, SOC                                
  Christoph Riplinger    : Optimizer, TS searches, QM/MM, DLPNO-CCSD(T), (RO)-DLPNO pert. Triples 
  Michael Roemelt        : Original ROCIS implementation                 
  Masaaki Saitow         : Open-shell DLPNO-CCSD energy and density      
  Barbara Sandhoefer     : DKH picture change effects                    
  Kantharuban Sivalingam : CASSCF convergence/infrastructure, NEVPT2 and variants, FIC-MRCI 
  Bernardo de Souza      : ESD, SOC TD-DFT                               
  Georgi L. Stoychev     : AutoAux, RI-MP2 NMR, DLPNO-MP2 response, X2C  
  Van Anh Tran           : RI-MP2 g-tensors                              
  Willem Van den Heuvel  : Paramagnetic NMR                              
  Zikuan Wang            : NOTCH, Electric field optimization            
  Frank Wennmohs         : Technical directorship and infrastructure     
  Hang Xu                : AUTO-CI-Response properties                   
                                                                         
[FACCTs GmbH]                                                            
  Markus Bursch, Miquel Garcia-Rates, Christoph Riplinger, Bernardo de Souza, Georgi L. Stoychev 
                                                                 
  APM, Basis sets (HGBS, AHGBS, def-TZVP (Ac-Lr), def2-XVPD (La-Lu)), CI-OPT, improved COSX, DLPNO-Multilevel,           
  DOCKER, DRACO, updates on ESD, GOAT, IRC, LR-CPCM, MBIS, meta-GGA TD-DFT gradient, ML-optimized integration grids, 
  MM, NACMEs, nearIR, NEB, NEB-TS, NL-DFT gradient (VV10), 2- and 3-layer-ONIOM, interface openCOSMO-RS, QMMM,   
  Crystal-QMMM, SF, symmetry and pop. for TD-DFT, r2SCAN hybrids, SOLVATOR                                   
                                                                         
[Other institutions]                                                     
  V. Asgeirsson          : NEB                                           
  Christoph Bannwarth    : sTDA-DFT, sTD-DFT, PBEh-3c, B97-3c, D3        
  Sebastian Ehlert       : rSCAN, r2SCAN, r2SCAN-3c, D4, dhf basis sets  
  Marvin Friede          : D4 for Fr, Ra, Ac-Lr                          
  Lars Goerigk           : TD-DFT with DH, B97 family of functionals     
  Stefan Grimme          : VdW corrections, initial TS optimization, DFT functionals, gCP, sTDA/sTD-DF 
  Waldemar Hujo          : DFT-NL                                        
  H. Jonsson             : NEB                                           
  Holger Kruse           : gCP                                           
  Marcel Mueller         : wB97X-3c, vDZP basis set                      
  Hagen Neugebauer       : wr2SCAN                                       
  Tobias Risthaus        : range-separated hybrid DFT                    
  Lukas Wittmann         : regularized MP2, r2SCAN double-hybrids, wr2SCAN        
                                                                         
We gratefully acknowledge several colleagues who have allowed us to      
interface, adapt or use parts of their codes:                            
  Ed Valeev, F. Pavosevic, A. Kumar             : LibInt (2-el integral package), F12 methods 
  Garnet Chan, S. Sharma, J. Yang, R. Olivares  : DMRG                   
  Ulf Ekstrom                                   : XCFun DFT Library      
  Mihaly Kallay                                 : mrcc  (arbitrary order and MRCC methods)
  Frank Weinhold                                : gennbo (NPA and NBO analysis)           
  Simon Mueller                                 : openCOSMO-RS                            
  Christopher J. Cramer and Donald G. Truhlar   : smd solvation model                     
  S Lehtola, MJT Oliveira, MAL Marques          : LibXC Library                           
  Liviu Ungur et al                             : ANISO software                          


 Your calculation uses the libint2 library for the computation of 2-el integrals
 For citations please refer to: http://libint.valeyev.net

 Your ORCA version has been built with support for libXC version: 6.2.2
 For citations please refer to: https://libxc.gitlab.io

 This ORCA versions uses:
   CBLAS   interface :  Fast vector & matrix operations
   LAPACKE interface :  Fast linear algebra routines
   SCALAPACK package :  Parallel linear algebra routines
   Shared memory     :  Shared parallel matrices
   BLAS/LAPACK       :  OpenBLAS 0.3.27  USE64BITINT DYNAMIC_ARCH NO_AFFINITY Zen SINGLE_THREADED
        Core in use  :  Zen
   Copyright (c) 2011-2014, The OpenBLAS Project


NOTE: MaxCore=2560 MB was set to SCF,MP2,MDCI,CIPSI,MRCI and CIS
      => If you want to overwrite this, your respective input block should be placed after the MaxCore statement
Your calculation utilizes the atom-pairwise dispersion correction
with the zero-damping scheme (D30)


XCFun DFT library Copyright 2009-2010 Ulf Ekstrom and contributors.
See http://admol.org/xcfun for more information.
This is free software; see the source code for copying conditions.
There is ABSOLUTELY NO WARRANTY; not even for MERCHANTABILITY or FITNESS FOR A PARTICULAR PURPOSE.
For details see the documentation.
Scientific users of this library should cite U. Ekstrom, L. Visscher, R. Bast, A. J. Thorvaldsen and K. Ruud;
J.Chem.Theor.Comp. 2010, DOI: 10.1021/ct100117s
XCFun Version 0.99 

Warning: RI is on but no J-basis has been assigned. Assigning Def2/J (nothing to worry about!)
================================================================================

----- Orbital basis set information -----
Your calculation utilizes the basis: 6-31G**
   H-He, Li-Ne : W. J. Hehre, R. Ditchfield and J.A. Pople, J. Chem. Phys. 56, 2257 (1972).
                 Note: He and Ne are unpublished basis sets taken from the Gaussian program.
                 Note: Li and B from J. D. Dill and J. A. Pople, J. Chem. Phys. 62, 2921 (1975).
   Na - Ar     : M. M. Francl, W. J. Pietro, W. J. Hehre, J. S. Binkley, M. S. Gordon, 
                 D. J. DeFrees and J. A. Pople, J. Chem. Phys. 77, 3654 (1982).
   K - Zn      : V. A. Rassolov, J. A. Pople, M. A. Ratner, and T. L. Windus, J. Chem. Phys. 109, 1223 (1998).

----- AuxJ basis set information -----
Your calculation utilizes the auxiliary basis: def2/J
   F. Weigend, Phys. Chem. Chem. Phys. 8, 1057 (2006).

================================================================================
                                        WARNINGS
                       Please study these warnings very carefully!
================================================================================


WARNING: Geometry Optimization
  ===> : Switching off AutoStart
         For restart on a previous wavefunction, please use MOREAD

================================================================================
                                       INPUT FILE
================================================================================
NAME = input.inp
|  1> # Automatically generated ORCA input
|  2> 
|  3> # Number of cores
|  4> %pal nprocs 24 end
|  5> # RAM per core
|  6> %maxcore 2560
|  7> 
|  8> ! wB97X-D3 
|  9> ! 6-31G** 
| 10> ! TightSCF 
| 11> ! Freq 
| 12> ! NoSym 
| 13> ! Opt 
| 14> 
| 15> %geom
| 16>   Calc_Hess true
| 17> end
| 18> 
| 19> 
| 20> *xyz 0 1 
| 21> C        -2.25911426     -1.33585101      0.81558484
| 22> C        -1.07235901     -0.62533708      1.10938416
| 23> C         0.12497285     -1.35721532      1.15858317
| 24> C         0.16971458     -2.73390968      0.96845159
| 25> C        -1.00535348     -3.42524599      0.70033904
| 26> C        -2.20266189     -2.72374541      0.61826464
| 27> H         1.05227433     -0.82340992      1.35700052
| 28> H         1.11828817     -3.26140916      1.02461988
| 29> H        -0.99306090     -4.50089645      0.54506133
| 30> H        -3.11732630     -3.26234175      0.39239059
| 31> N        -3.51089525     -0.63996899      0.69566281
| 32> C        -4.45387570     -0.76215232      1.83174152
| 33> C        -3.98738951     -0.39218417     -0.68746179
| 34> C        -5.48946868      0.37466194      1.74471186
| 35> C        -3.67505426     -0.54712469      3.13505818
| 36> C        -5.17939745     -2.12240419      1.95221134
| 37> C        -5.03318543      0.73748022     -0.65575689
| 38> C        -4.58295715     -1.62376524     -1.40835615
| 39> C        -2.81107416      0.10583435     -1.54243384
| 40> H        -6.24658124      0.22078027      2.52305040
| 41> H        -4.97471398      1.31702773      1.97723003
| 42> C        -6.13172096      0.50639803      0.37196837
| 43> H        -2.95614690     -1.34775469      3.32703993
| 44> C         2.44225333      4.92608374      2.00358152
| 45> H         1.80673260      5.72723814      1.61676170
| 46> H         2.42402318      4.97644244      3.09380734
| 47> H         3.46621453      5.11247352      1.66228030
| 48> C         1.75077607      3.62328664     -0.01874311
| 49> H         0.99321310      4.37664696     -0.25056074
| 50> H         2.67496726      3.88747166     -0.53974761
| 51> H         1.39564258      2.66411286     -0.40558423
| 52> C         3.83436204      1.86454032      1.00003147
| 53> H         4.57733108      2.64514949      0.80463814
| 54> H         4.35470190      0.99570831      1.41198980
| 55> H         3.38269386      1.56414093      0.05277149
| 56> C         3.39637449      2.55835930      3.37117820
| 57> H         3.80611040      1.61082187      3.72998163
| 58> H        -3.12844809      0.39495411      3.08316763
| 59> H        -4.36551523     -0.49956274      3.98377653
| 60> H        -5.79221915     -2.36078863      1.08011641
| 61> H        -4.46103811     -2.93362143      2.09709168
| 62> H        -5.83905501     -2.11365757      2.82748089
| 63> H        -5.45344593      0.85640099     -1.66141241
| 64> H        -4.51420515      1.67323499     -0.40904069
| 65> H        -4.87382020     -1.34993535     -2.42879213
| 66> H        -3.84506567     -2.42611938     -1.48688413
| 67> H        -5.46992655     -2.02314790     -0.91121198
| 68> H        -2.33439951      0.97182030     -1.07633524
| 69> H        -2.05113587     -0.66668982     -1.68512919
| 70> H        -3.18003048      0.40232446     -2.52994867
| 71> H        -6.84061108      1.34228705      0.36430640
| 72> H        -6.71312587     -0.39155961      0.12662893
| 73> B        -1.04880729      0.95189969      1.40153133
| 74> H        -2.01653623      1.60403335      1.12069189
| 75> H        -0.09777119      1.48229548      0.77941228
| 76> C         1.93924832      3.57920467      1.49893408
| 77> C         2.77672120      2.34277994      1.98808813
| 78> O         0.64783068      3.32390480      2.07906909
| 79> O         1.78337625      1.31118564      2.11825460
| 80> B         0.52761473      1.93194597      2.16440600
| 81> H         4.20581492      3.29500291      3.34807779
| 82> H         2.64008938      2.89124743      4.08778230
| 83> C        -0.68643826      1.32987220      3.06219611
| 84> C        -0.38930463      0.31795280      4.00852398
| 85> C        -1.03224159      0.59949760      5.20045380
| 86> H         0.23978360     -0.53378362      3.78928914
| 87> C        -1.73388836      1.79069052      4.99321345
| 88> H        -1.01808068      0.02471206      6.11449629
| 89> H        -2.36661834      2.34241496      5.67659551
| 90> N        -1.53791864      2.22681111      3.74919031
| 91> C        -2.12684390      3.43183566      3.19020060
| 92> H        -1.33551369      4.12389257      2.90120049
| 93> H        -2.71441008      3.17479730      2.30658721
| 94> H        -2.77565952      3.88374730      3.94126708
| 95> *
| 96> 
| 97> 
| 98>                          ****END OF INPUT****
================================================================================

                       *****************************
                       * Geometry Optimization Run *
                       *****************************

Geometry optimization settings:
Update method            Update   .... BFGS
Choice of coordinates    CoordSys .... (2022) Redundant Internals
Initial Hessian          InHess   .... Almloef's Model
Max. no of cycles        MaxIter  .... 222

Convergence Tolerances:
Energy Change            TolE     ....  5.0000e-06 Eh
Max. Gradient            TolMAXG  ....  3.0000e-04 Eh/bohr
RMS Gradient             TolRMSG  ....  1.0000e-04 Eh/bohr
Max. Displacement        TolMAXD  ....  4.0000e-03 bohr
RMS Displacement         TolRMSD  ....  2.0000e-03 bohr
Strict Convergence                .... False

------------------------------------------------------------------------------
                        ORCA OPTIMIZATION COORDINATE SETUP
------------------------------------------------------------------------------

The optimization will be done in redundant internal coordinates (2022)
Making redundant internal coordinates   ...  (2022 redundants) done
Evaluating the initial hessian          ...  (Is done on the fly) done
Evaluating the coordinates              ...  done
Calculating the B-matrix                .... done
Calculating the G-matrix                .... done
Diagonalizing the G-matrix              .... done
Small eigenvalue found = 3.141e-03
Small eigenvalue found = 6.635e-03
Small eigenvalue found = 7.793e-03
Small eigenvalue found = 1.278e-02
Small eigenvalue found = 1.590e-02
Small eigenvalue found = 1.839e-02
Small eigenvalue found = 2.019e-02
Small eigenvalue found = 2.254e-02
Small eigenvalue found = 2.634e-02
The first mode is                       ....  198
The number of degrees of freedom        ....  216

    -----------------------------------------------------------------
                    Redundant Internal Coordinates


    -----------------------------------------------------------------
         Definition                    Initial Value    d2E/dq (diagonal element)
    -----------------------------------------------------------------
      1. B(C   1,C   0)                  1.4140         0.000000   
      2. B(C   2,C   1)                  1.4042         0.000000   
      3. B(C   3,C   2)                  1.3905         0.000000   
      4. B(C   4,C   3)                  1.3895         0.000000   
      5. B(C   5,C   4)                  1.3901         0.000000   
      6. B(C   5,C   0)                  1.4030         0.000000   
      7. B(H   6,C   2)                  1.0882         0.000000   
      8. B(H   7,C   3)                  1.0868         0.000000   
      9. B(H   8,C   4)                  1.0869         0.000000   
     10. B(H   9,C   5)                  1.0852         0.000000   
     11. B(N  10,C   0)                  1.4372         0.000000   
     12. B(C  11,N  10)                  1.4815         0.000000   
     13. B(C  12,N  10)                  1.4837         0.000000   
     14. B(C  13,C  11)                  1.5403         0.000000   
     15. B(C  14,C  11)                  1.5334         0.000000   
     16. B(C  15,C  11)                  1.5463         0.000000   
     17. B(C  16,C  12)                  1.5398         0.000000   
     18. B(C  17,C  12)                  1.5463         0.000000   
     19. B(C  18,C  12)                  1.5371         0.000000   
     20. B(H  19,C  13)                  1.0967         0.000000   
     21. B(H  20,C  13)                  1.0987         0.000000   
     22. B(C  21,C  16)                  1.5220         0.000000   
     23. B(C  21,C  13)                  1.5213         0.000000   
     24. B(H  22,C  14)                  1.0930         0.000000   
     25. B(H  24,C  23)                  1.0933         0.000000   
     26. B(H  25,C  23)                  1.0915         0.000000   
     27. B(H  26,C  23)                  1.0953         0.000000   
     28. B(H  28,C  27)                  1.0932         0.000000   
     29. B(H  29,C  27)                  1.0933         0.000000   
     30. B(H  30,C  27)                  1.0935         0.000000   
     31. B(H  32,C  31)                  1.0952         0.000000   
     32. B(H  33,C  31)                  1.0933         0.000000   
     33. B(H  34,C  31)                  1.0916         0.000000   
     34. B(H  36,C  35)                  1.0929         0.000000   
     35. B(H  37,C  14)                  1.0904         0.000000   
     36. B(H  38,C  14)                  1.0951         0.000000   
     37. B(H  39,C  15)                  1.0922         0.000000   
     38. B(H  40,C  15)                  1.0932         0.000000   
     39. B(H  41,C  15)                  1.0960         0.000000   
     40. B(H  42,C  16)                  1.0964         0.000000   
     41. B(H  43,C  16)                  1.0981         0.000000   
     42. B(H  44,C  17)                  1.0958         0.000000   
     43. B(H  45,C  17)                  1.0929         0.000000   
     44. B(H  46,C  17)                  1.0924         0.000000   
     45. B(H  47,C  18)                  1.0929         0.000000   
     46. B(H  47,H  30)                  4.1505         0.000000   
     47. B(H  48,C  18)                  1.0930         0.000000   
     48. B(H  49,C  18)                  1.0951         0.000000   
     49. B(H  50,C  21)                  1.0960         0.000000   
     50. B(H  51,C  21)                  1.0975         0.000000   
     51. B(B  52,C   1)                  1.6042         0.000000   
     52. B(H  53,B  52)                  1.2003         0.000000   
     53. B(H  54,B  52)                  1.2541         0.000000   
     54. B(C  55,C  27)                  1.5300         0.000000   
     55. B(C  55,C  23)                  1.5237         0.000000   
     56. B(C  56,C  55)                  1.5714         0.000000   
     57. B(C  56,C  35)                  1.5308         0.000000   
     58. B(C  56,C  31)                  1.5243         0.000000   
     59. B(O  57,C  55)                  1.4386         0.000000   
     60. B(O  58,C  56)                  1.4380         0.000000   
     61. B(B  59,O  58)                  1.4016         0.000000   
     62. B(B  59,O  57)                  1.3997         0.000000   
     63. B(B  59,B  52)                  2.0069         0.000000   
     64. B(H  60,C  35)                  1.0947         0.000000   
     65. B(H  61,C  35)                  1.0938         0.000000   
     66. B(C  62,B  59)                  1.6256         0.000000   
     67. B(C  62,B  52)                  1.7413         0.000000   
     68. B(C  63,C  62)                  1.4170         0.000000   
     69. B(C  64,C  63)                  1.3832         0.000000   
     70. B(H  65,C  63)                  1.0813         0.000000   
     71. B(C  66,C  64)                  1.3979         0.000000   
     72. B(H  67,C  64)                  1.0798         0.000000   
     73. B(H  68,C  66)                  1.0825         0.000000   
     74. B(N  69,C  66)                  1.3327         0.000000   
     75. B(N  69,C  62)                  1.4147         0.000000   
     76. B(C  70,N  69)                  1.4531         0.000000   
     77. B(H  71,C  70)                  1.0903         0.000000   
     78. B(H  72,H  50)                  4.9149         0.000000   
     79. B(H  72,C  70)                  1.0918         0.000000   
     80. B(H  73,C  70)                  1.0905         0.000000   
     81. A(C   5,C   0,N  10)          120.1516         0.000000   
     82. A(C   1,C   0,C   5)          119.5060         0.000000   
     83. A(C   1,C   0,N  10)          120.3329         0.000000   
     84. A(C   0,C   1,B  52)          122.9679         0.000000   
     85. A(C   2,C   1,B  52)          119.5741         0.000000   
     86. A(C   0,C   1,C   2)          117.4531         0.000000   
     87. A(C   1,C   2,C   3)          122.5951         0.000000   
     88. A(C   1,C   2,H   6)          118.5110         0.000000   
     89. A(C   3,C   2,H   6)          118.8935         0.000000   
     90. A(C   2,C   3,C   4)          119.4586         0.000000   
     91. A(C   2,C   3,H   7)          120.1033         0.000000   
     92. A(C   4,C   3,H   7)          120.4374         0.000000   
     93. A(C   3,C   4,H   8)          120.6920         0.000000   
     94. A(C   3,C   4,C   5)          119.2561         0.000000   
     95. A(C   5,C   4,H   8)          120.0487         0.000000   
     96. A(C   4,C   5,H   9)          119.1945         0.000000   
     97. A(C   0,C   5,H   9)          119.0989         0.000000   
     98. A(C   0,C   5,C   4)          121.7062         0.000000   
     99. A(C   0,N  10,C  12)          115.9987         0.000000   
    100. A(C   0,N  10,C  11)          116.7735         0.000000   
    101. A(C  11,N  10,C  12)          121.6151         0.000000   
    102. A(C  13,C  11,C  15)          109.7668         0.000000   
    103. A(N  10,C  11,C  15)          115.5266         0.000000   
    104. A(C  13,C  11,C  14)          106.6193         0.000000   
    105. A(N  10,C  11,C  13)          108.8903         0.000000   
    106. A(N  10,C  11,C  14)          108.4771         0.000000   
    107. A(C  14,C  11,C  15)          107.1834         0.000000   
    108. A(N  10,C  12,C  16)          108.7506         0.000000   
    109. A(C  16,C  12,C  17)          109.4106         0.000000   
    110. A(C  16,C  12,C  18)          107.0689         0.000000   
    111. A(N  10,C  12,C  17)          115.1671         0.000000   
    112. A(N  10,C  12,C  18)          109.0774         0.000000   
    113. A(C  17,C  12,C  18)          107.0666         0.000000   
    114. A(H  20,C  13,C  21)          108.3305         0.000000   
    115. A(H  19,C  13,C  21)          111.1690         0.000000   
    116. A(C  11,C  13,C  21)          113.5004         0.000000   
    117. A(C  11,C  13,H  19)          108.6935         0.000000   
    118. A(C  11,C  13,H  20)          107.8239         0.000000   
    119. A(H  19,C  13,H  20)          107.0738         0.000000   
    120. A(H  37,C  14,H  38)          108.3855         0.000000   
    121. A(H  22,C  14,H  38)          108.0817         0.000000   
    122. A(C  11,C  14,H  38)          110.1550         0.000000   
    123. A(H  22,C  14,H  37)          108.1498         0.000000   
    124. A(C  11,C  14,H  22)          112.3723         0.000000   
    125. A(C  11,C  14,H  37)          109.5910         0.000000   
    126. A(C  11,C  15,H  41)          109.7291         0.000000   
    127. A(H  39,C  15,H  40)          108.2132         0.000000   
    128. A(C  11,C  15,H  40)          110.7793         0.000000   
    129. A(C  11,C  15,H  39)          113.1437         0.000000   
    130. A(H  40,C  15,H  41)          107.1919         0.000000   
    131. A(H  39,C  15,H  41)          107.5588         0.000000   
    132. A(C  21,C  16,H  42)          111.0493         0.000000   
    133. A(C  12,C  16,H  43)          107.9883         0.000000   
    134. A(C  12,C  16,H  42)          108.7253         0.000000   
    135. A(C  12,C  16,C  21)          113.1254         0.000000   
    136. A(C  21,C  16,H  43)          108.5900         0.000000   
    137. A(H  42,C  16,H  43)          107.1459         0.000000   
    138. A(H  45,C  17,H  46)          108.2093         0.000000   
    139. A(C  12,C  17,H  46)          113.0623         0.000000   
    140. A(H  44,C  17,H  45)          107.2024         0.000000   
    141. A(C  12,C  17,H  45)          110.9880         0.000000   
    142. A(C  12,C  17,H  44)          109.7139         0.000000   
    143. A(H  44,C  17,H  46)          107.4348         0.000000   
    144. A(H  48,C  18,H  49)          107.9316         0.000000   
    145. A(H  47,C  18,H  49)          108.4820         0.000000   
    146. A(H  47,C  18,H  48)          108.2085         0.000000   
    147. A(C  12,C  18,H  48)          112.0673         0.000000   
    148. A(C  12,C  18,H  47)          110.6890         0.000000   
    149. A(C  12,C  18,H  49)          109.3577         0.000000   
    150. A(H  50,C  21,H  51)          106.2474         0.000000   
    151. A(C  16,C  21,H  51)          110.8325         0.000000   
    152. A(C  13,C  21,H  51)          110.7636         0.000000   
    153. A(C  16,C  21,H  50)          110.2623         0.000000   
    154. A(C  13,C  21,H  50)          110.2067         0.000000   
    155. A(C  13,C  21,C  16)          108.5272         0.000000   
    156. A(H  25,C  23,C  55)          111.4728         0.000000   
    157. A(H  26,C  23,C  55)          110.8441         0.000000   
    158. A(H  24,C  23,C  55)          109.7950         0.000000   
    159. A(H  25,C  23,H  26)          108.6017         0.000000   
    160. A(H  24,C  23,H  26)          107.9667         0.000000   
    161. A(H  24,C  23,H  25)          108.0508         0.000000   
    162. A(H  29,C  27,C  55)          112.0573         0.000000   
    163. A(H  29,C  27,H  30)          108.5355         0.000000   
    164. A(H  28,C  27,C  55)          108.3945         0.000000   
    165. A(H  28,C  27,H  30)          107.7213         0.000000   
    166. A(H  28,C  27,H  29)          108.5536         0.000000   
    167. A(H  30,C  27,C  55)          111.4476         0.000000   
    168. A(H  33,C  31,H  34)          107.7712         0.000000   
    169. A(H  34,C  31,C  56)          111.2071         0.000000   
    170. A(H  33,C  31,C  56)          109.5910         0.000000   
    171. A(H  32,C  31,H  34)          108.7850         0.000000   
    172. A(H  32,C  31,C  56)          111.2665         0.000000   
    173. A(H  32,C  31,H  33)          108.1052         0.000000   
    174. A(H  60,C  35,H  61)          108.6808         0.000000   
    175. A(C  56,C  35,H  61)          110.7886         0.000000   
    176. A(H  36,C  35,H  61)          107.9390         0.000000   
    177. A(C  56,C  35,H  60)          112.0247         0.000000   
    178. A(H  36,C  35,H  60)          108.2478         0.000000   
    179. A(H  36,C  35,C  56)          109.0433         0.000000   
    180. A(B  59,B  52,C  62)           50.8015         0.000000   
    181. A(H  54,B  52,C  62)          102.9137         0.000000   
    182. A(H  53,B  52,C  62)          105.8429         0.000000   
    183. A(C   1,B  52,C  62)          112.9639         0.000000   
    184. A(H  54,B  52,B  59)           52.1470         0.000000   
    185. A(H  53,B  52,B  59)          117.1897         0.000000   
    186. A(C   1,B  52,B  59)          124.1167         0.000000   
    187. A(H  53,B  52,H  54)          105.4001         0.000000   
    188. A(C   1,B  52,H  54)          109.6698         0.000000   
    189. A(C   1,B  52,H  53)          118.6678         0.000000   
    190. A(C  56,C  55,O  57)          102.3133         0.000000   
    191. A(C  27,C  55,O  57)          107.1311         0.000000   
    192. A(C  23,C  55,O  57)          108.6420         0.000000   
    193. A(C  27,C  55,C  56)          113.3970         0.000000   
    194. A(C  23,C  55,C  56)          114.6119         0.000000   
    195. A(C  23,C  55,C  27)          110.1041         0.000000   
    196. A(C  55,C  56,O  58)          102.9723         0.000000   
    197. A(C  35,C  56,O  58)          107.3892         0.000000   
    198. A(C  31,C  56,O  58)          108.2338         0.000000   
    199. A(C  35,C  56,C  55)          112.7160         0.000000   
    200. A(C  31,C  56,C  55)          114.5105         0.000000   
    201. A(C  31,C  56,C  35)          110.4241         0.000000   
    202. A(C  55,O  57,B  59)          106.1507         0.000000   
    203. A(C  56,O  58,B  59)          107.7080         0.000000   
    204. A(B  52,B  59,C  62)           56.1109         0.000000   
    205. A(O  57,B  59,O  58)          111.1912         0.000000   
    206. A(B  52,B  59,O  58)          118.3582         0.000000   
    207. A(B  52,B  59,O  57)          121.9997         0.000000   
    208. A(O  58,B  59,C  62)          121.5537         0.000000   
    209. A(O  57,B  59,C  62)          117.7836         0.000000   
    210. A(C  63,C  62,N  69)          104.7537         0.000000   
    211. A(B  59,C  62,N  69)          118.8736         0.000000   
    212. A(B  52,C  62,N  69)          118.3913         0.000000   
    213. A(B  59,C  62,C  63)          118.4730         0.000000   
    214. A(B  52,C  62,C  63)          121.7061         0.000000   
    215. A(B  52,C  62,B  59)           73.0876         0.000000   
    216. A(C  64,C  63,H  65)          127.2607         0.000000   
    217. A(C  62,C  63,H  65)          123.3056         0.000000   
    218. A(C  62,C  63,C  64)          109.4304         0.000000   
    219. A(C  66,C  64,H  67)          125.8482         0.000000   
    220. A(C  63,C  64,H  67)          127.9488         0.000000   
    221. A(C  63,C  64,C  66)          106.2000         0.000000   
    222. A(H  68,C  66,N  69)          120.5606         0.000000   
    223. A(C  64,C  66,N  69)          110.0853         0.000000   
    224. A(C  64,C  66,H  68)          129.3534         0.000000   
    225. A(C  66,N  69,C  70)          124.8109         0.000000   
    226. A(C  62,N  69,C  70)          125.6549         0.000000   
    227. A(C  62,N  69,C  66)          109.5304         0.000000   
    228. A(H  72,C  70,H  73)          109.5578         0.000000   
    229. A(H  71,C  70,H  73)          110.5694         0.000000   
    230. A(N  69,C  70,H  73)          108.6534         0.000000   
    231. A(H  71,C  70,H  72)          108.9966         0.000000   
    232. A(N  69,C  70,H  72)          109.5248         0.000000   
    233. A(N  69,C  70,H  71)          109.5245         0.000000   
    234. D(C   2,C   1,C   0,N  10)   -177.4453         0.000000   
    235. D(C   2,C   1,C   0,C   5)      1.4338         0.000000   
    236. D(B  52,C   1,C   0,N  10)      3.3678         0.000000   
    237. D(B  52,C   1,C   0,C   5)   -177.7531         0.000000   
    238. D(C   3,C   2,C   1,B  52)    177.3880         0.000000   
    239. D(C   3,C   2,C   1,C   0)     -1.8277         0.000000   
    240. D(H   6,C   2,C   1,B  52)     -2.3926         0.000000   
    241. D(H   6,C   2,C   1,C   0)    178.3918         0.000000   
    242. D(C   4,C   3,C   2,H   6)   -179.3232         0.000000   
    243. D(H   7,C   3,C   2,H   6)      0.3631         0.000000   
    244. D(H   7,C   3,C   2,C   1)   -179.4166         0.000000   
    245. D(C   4,C   3,C   2,C   1)      0.8971         0.000000   
    246. D(C   5,C   4,C   3,H   7)   -179.2388         0.000000   
    247. D(H   8,C   4,C   3,C   2)    179.7924         0.000000   
    248. D(C   5,C   4,C   3,C   2)      0.4464         0.000000   
    249. D(H   8,C   4,C   3,H   7)      0.1072         0.000000   
    250. D(H   9,C   5,C   0,N  10)     -1.0731         0.000000   
    251. D(C   0,C   5,C   4,H   8)    179.8485         0.000000   
    252. D(H   9,C   5,C   4,H   8)     -0.3650         0.000000   
    253. D(H   9,C   5,C   4,C   3)    178.9852         0.000000   
    254. D(H   9,C   5,C   0,C   1)   -179.9542         0.000000   
    255. D(C   4,C   5,C   0,N  10)    178.7135         0.000000   
    256. D(C   0,C   5,C   4,C   3)     -0.8012         0.000000   
    257. D(C   4,C   5,C   0,C   1)     -0.1676         0.000000   
    258. D(C  12,N  10,C   0,C   1)    101.7454         0.000000   
    259. D(C  12,N  10,C   0,C   5)    -77.1265         0.000000   
    260. D(C  11,N  10,C   0,C   1)   -104.1834         0.000000   
    261. D(C  11,N  10,C   0,C   5)     76.9448         0.000000   
    262. D(C  13,C  11,N  10,C  12)    -45.8151         0.000000   
    263. D(C  14,C  11,N  10,C   0)     46.0064         0.000000   
    264. D(C  13,C  11,N  10,C   0)    161.6685         0.000000   
    265. D(C  14,C  11,N  10,C  12)   -161.4773         0.000000   
    266. D(C  15,C  11,N  10,C   0)    -74.3088         0.000000   
    267. D(C  18,C  12,N  10,C   0)    -44.4364         0.000000   
    268. D(C  17,C  12,N  10,C   0)     75.9352         0.000000   
    269. D(C  17,C  12,N  10,C  11)    -76.7802         0.000000   
    270. D(C  16,C  12,N  10,C   0)   -160.8845         0.000000   
    271. D(C  16,C  12,N  10,C  11)     46.4001         0.000000   
    272. D(H  20,C  13,C  11,C  15)    162.4750         0.000000   
    273. D(H  19,C  13,C  11,C  15)     46.7297         0.000000   
    274. D(H  19,C  13,C  11,C  14)    -69.0478         0.000000   
    275. D(H  19,C  13,C  11,N  10)    174.0990         0.000000   
    276. D(H  20,C  13,C  11,C  14)     46.6975         0.000000   
    277. D(H  20,C  13,C  11,N  10)    -70.1557         0.000000   
    278. D(H  37,C  14,C  11,C  15)    178.7473         0.000000   
    279. D(H  37,C  14,C  11,C  13)    -63.7542         0.000000   
    280. D(H  37,C  14,C  11,N  10)     53.3733         0.000000   
    281. D(H  22,C  14,C  11,C  15)     58.4790         0.000000   
    282. D(H  22,C  14,C  11,C  13)    175.9775         0.000000   
    283. D(H  22,C  14,C  11,N  10)    -66.8950         0.000000   
    284. D(H  40,C  15,C  11,C  14)    -59.9611         0.000000   
    285. D(H  40,C  15,C  11,C  13)   -175.3808         0.000000   
    286. D(H  40,C  15,C  11,N  10)     61.0558         0.000000   
    287. D(H  39,C  15,C  11,C  14)    178.3202         0.000000   
    288. D(H  39,C  15,C  11,C  13)     62.9005         0.000000   
    289. D(H  39,C  15,C  11,N  10)    -60.6628         0.000000   
    290. D(H  42,C  16,C  12,C  18)     67.5169         0.000000   
    291. D(H  42,C  16,C  12,N  10)   -174.7535         0.000000   
    292. D(C  21,C  16,C  12,N  10)    -50.8950         0.000000   
    293. D(C  21,C  16,C  12,C  17)     75.6728         0.000000   
    294. D(H  42,C  16,C  12,C  17)    -48.1856         0.000000   
    295. D(C  21,C  16,C  12,C  18)   -168.6247         0.000000   
    296. D(H  44,C  17,C  12,N  10)   -178.1141         0.000000   
    297. D(H  45,C  17,C  12,C  18)     61.6439         0.000000   
    298. D(H  45,C  17,C  12,C  16)    177.3479         0.000000   
    299. D(H  45,C  17,C  12,N  10)    -59.8233         0.000000   
    300. D(H  44,C  17,C  12,C  18)    -56.6469         0.000000   
    301. D(H  44,C  17,C  12,C  16)     59.0571         0.000000   
    302. D(H  48,C  18,C  12,C  17)    -58.2446         0.000000   
    303. D(H  48,C  18,C  12,C  16)   -175.4980         0.000000   
    304. D(H  48,C  18,C  12,N  10)     66.9864         0.000000   
    305. D(H  47,C  18,C  12,C  17)   -179.1429         0.000000   
    306. D(H  47,C  18,C  12,C  16)     63.6037         0.000000   
    307. D(H  47,C  18,C  12,N  10)    -53.9119         0.000000   
    308. D(H  50,C  21,C  16,H  43)     59.3681         0.000000   
    309. D(H  50,C  21,C  16,H  42)    -58.1942         0.000000   
    310. D(H  50,C  21,C  16,C  12)    179.2313         0.000000   
    311. D(C  13,C  21,C  16,H  43)    -61.4312         0.000000   
    312. D(C  13,C  21,C  16,H  42)   -178.9936         0.000000   
    313. D(C  13,C  21,C  16,C  12)     58.4320         0.000000   
    314. D(H  50,C  21,C  13,H  20)    -59.0411         0.000000   
    315. D(H  50,C  21,C  13,H  19)     58.3446         0.000000   
    316. D(H  50,C  21,C  13,C  11)   -178.7557         0.000000   
    317. D(C  16,C  21,C  13,H  19)    179.1784         0.000000   
    318. D(C  16,C  21,C  13,C  11)    -57.9219         0.000000   
    319. D(C  16,C  21,C  13,H  20)     61.7926         0.000000   
    320. D(B  59,B  52,C   1,C   2)    -11.5680         0.000000   
    321. D(B  59,B  52,C   1,C   0)    167.6024         0.000000   
    322. D(H  54,B  52,C   1,C   2)     45.4099         0.000000   
    323. D(H  54,B  52,C   1,C   0)   -135.4197         0.000000   
    324. D(H  53,B  52,C   1,C   2)    166.5316         0.000000   
    325. D(H  53,B  52,C   1,C   0)    -14.2981         0.000000   
    326. D(C  56,C  55,C  27,H  30)     49.7304         0.000000   
    327. D(C  56,C  55,C  27,H  28)    168.1083         0.000000   
    328. D(C  23,C  55,C  27,H  30)    179.6415         0.000000   
    329. D(C  23,C  55,C  27,H  29)     57.7915         0.000000   
    330. D(C  23,C  55,C  27,H  28)    -61.9806         0.000000   
    331. D(C  56,C  55,C  23,H  26)     60.7217         0.000000   
    332. D(C  56,C  55,C  23,H  25)    -60.3798         0.000000   
    333. D(C  56,C  55,C  23,H  24)    179.9200         0.000000   
    334. D(C  27,C  55,C  23,H  26)    -68.5351         0.000000   
    335. D(C  56,C  55,C  27,H  29)    -72.1196         0.000000   
    336. D(C  27,C  55,C  23,H  25)    170.3635         0.000000   
    337. D(C  27,C  55,C  23,H  24)     50.6633         0.000000   
    338. D(C  35,C  56,C  55,O  57)    -86.2886         0.000000   
    339. D(C  35,C  56,C  55,C  27)    158.6904         0.000000   
    340. D(C  35,C  56,C  55,C  23)     31.0899         0.000000   
    341. D(C  31,C  56,C  55,C  27)     31.3422         0.000000   
    342. D(C  31,C  56,C  55,C  23)    -96.2583         0.000000   
    343. D(C  55,C  56,C  35,H  61)     51.1386         0.000000   
    344. D(C  55,C  56,C  35,H  60)    -70.4048         0.000000   
    345. D(C  55,C  56,C  35,H  36)    169.7958         0.000000   
    346. D(C  31,C  56,C  35,H  61)   -179.3815         0.000000   
    347. D(C  31,C  56,C  35,H  60)     59.0751         0.000000   
    348. D(C  31,C  56,C  35,H  36)    -60.7244         0.000000   
    349. D(C  55,C  56,C  31,H  34)    -59.9961         0.000000   
    350. D(C  55,C  56,C  31,H  33)   -179.0480         0.000000   
    351. D(C  31,C  56,C  55,O  57)    146.3632         0.000000   
    352. D(C  55,C  56,C  31,H  32)     61.4481         0.000000   
    353. D(C  35,C  56,C  31,H  34)    171.4930         0.000000   
    354. D(C  35,C  56,C  31,H  33)     52.4411         0.000000   
    355. D(C  35,C  56,C  31,H  32)    -67.0628         0.000000   
    356. D(B  59,O  57,C  55,C  56)    -29.7231         0.000000   
    357. D(B  59,O  57,C  55,C  27)     89.7886         0.000000   
    358. D(B  59,O  57,C  55,C  23)   -151.2916         0.000000   
    359. D(B  59,O  58,C  56,C  35)    101.3976         0.000000   
    360. D(B  59,O  58,C  56,C  31)   -139.3812         0.000000   
    361. D(B  59,O  58,C  56,C  55)    -17.7722         0.000000   
    362. D(C  62,B  59,O  58,C  56)   -145.9299         0.000000   
    363. D(O  57,B  59,O  58,C  56)     -0.3654         0.000000   
    364. D(C  62,B  59,O  57,C  55)    167.3740         0.000000   
    365. D(O  58,B  59,O  57,C  55)     20.3758         0.000000   
    366. D(B  52,B  59,O  57,C  55)   -127.0789         0.000000   
    367. D(O  58,B  59,B  52,H  54)    -71.8027         0.000000   
    368. D(O  58,B  59,B  52,H  53)   -160.5923         0.000000   
    369. D(O  58,B  59,B  52,C   1)     17.5331         0.000000   
    370. D(O  57,B  59,B  52,C  62)   -104.0295         0.000000   
    371. D(B  52,B  59,O  58,C  56)    148.4070         0.000000   
    372. D(O  57,B  59,B  52,H  54)     73.4477         0.000000   
    373. D(O  57,B  59,B  52,H  53)    -15.3419         0.000000   
    374. D(O  57,B  59,B  52,C   1)    162.7835         0.000000   
    375. D(N  69,C  62,B  59,B  52)   -113.5701         0.000000   
    376. D(C  63,C  62,B  59,O  58)     12.3777         0.000000   
    377. D(C  63,C  62,B  59,O  57)   -131.0423         0.000000   
    378. D(C  63,C  62,B  59,B  52)    117.3873         0.000000   
    379. D(B  52,C  62,B  59,O  58)   -105.0096         0.000000   
    380. D(B  52,C  62,B  59,O  57)    111.5704         0.000000   
    381. D(C  63,C  62,B  52,B  59)   -113.4453         0.000000   
    382. D(C  63,C  62,B  52,H  54)   -115.4887         0.000000   
    383. D(C  63,C  62,B  52,H  53)    134.1296         0.000000   
    384. D(C  63,C  62,B  52,C   1)      2.6891         0.000000   
    385. D(B  59,C  62,B  52,H  54)     -2.0435         0.000000   
    386. D(B  59,C  62,B  52,H  53)   -112.4252         0.000000   
    387. D(B  59,C  62,B  52,C   1)    116.1344         0.000000   
    388. D(H  65,C  63,C  62,B  59)    -45.3263         0.000000   
    389. D(H  65,C  63,C  62,B  52)     41.5807         0.000000   
    390. D(C  64,C  63,C  62,N  69)     -0.0225         0.000000   
    391. D(C  64,C  63,C  62,B  59)    135.2840         0.000000   
    392. D(C  64,C  63,C  62,B  52)   -137.8090         0.000000   
    393. D(H  67,C  64,C  63,H  65)      0.1232         0.000000   
    394. D(H  67,C  64,C  63,C  62)    179.4823         0.000000   
    395. D(C  66,C  64,C  63,H  65)   -179.2648         0.000000   
    396. D(C  66,C  64,C  63,C  62)      0.0943         0.000000   
    397. D(N  69,C  66,C  64,H  67)   -179.5407         0.000000   
    398. D(N  69,C  66,C  64,C  63)     -0.1361         0.000000   
    399. D(H  68,C  66,C  64,H  67)      0.1540         0.000000   
    400. D(H  68,C  66,C  64,C  63)    179.5586         0.000000   
    401. D(C  70,N  69,C  66,H  68)     -0.2819         0.000000   
    402. D(C  70,N  69,C  66,C  64)    179.4439         0.000000   
    403. D(C  62,N  69,C  66,H  68)   -179.6006         0.000000   
    404. D(C  62,N  69,C  66,C  64)      0.1252         0.000000   
    405. D(C  70,N  69,C  62,B  59)     45.5368         0.000000   
    406. D(C  70,N  69,C  62,B  52)    -39.8988         0.000000   
    407. D(C  66,N  69,C  62,C  63)     -0.0629         0.000000   
    408. D(C  66,N  69,C  62,B  59)   -135.1518         0.000000   
    409. D(C  66,N  69,C  62,B  52)    139.4127         0.000000   
    410. D(H  73,C  70,N  69,C  62)    176.9913         0.000000   
    411. D(H  72,C  70,N  69,C  66)   -121.8603         0.000000   
    412. D(H  72,C  70,N  69,C  62)     57.3493         0.000000   
    413. D(H  71,C  70,N  69,C  66)    118.6554         0.000000   
    414. D(H  71,C  70,N  69,C  62)    -62.1350         0.000000   
    -----------------------------------------------------------------

Number of atoms                         .... 74
Number of degrees of freedom            .... 414


         *************************************************************
         *                GEOMETRY OPTIMIZATION CYCLE   1            *
         *************************************************************
---------------------------------
CARTESIAN COORDINATES (ANGSTROEM)
---------------------------------
  C     -2.259114   -1.335851    0.815585
  C     -1.072359   -0.625337    1.109384
  C      0.124973   -1.357215    1.158583
  C      0.169715   -2.733910    0.968452
  C     -1.005353   -3.425246    0.700339
  C     -2.202662   -2.723745    0.618265
  H      1.052274   -0.823410    1.357001
  H      1.118288   -3.261409    1.024620
  H     -0.993061   -4.500896    0.545061
  H     -3.117326   -3.262342    0.392391
  N     -3.510895   -0.639969    0.695663
  C     -4.453876   -0.762152    1.831742
  C     -3.987390   -0.392184   -0.687462
  C     -5.489469    0.374662    1.744712
  C     -3.675054   -0.547125    3.135058
  C     -5.179397   -2.122404    1.952211
  C     -5.033185    0.737480   -0.655757
  C     -4.582957   -1.623765   -1.408356
  C     -2.811074    0.105834   -1.542434
  H     -6.246581    0.220780    2.523050
  H     -4.974714    1.317028    1.977230
  C     -6.131721    0.506398    0.371968
  H     -2.956147   -1.347755    3.327040
  C      2.442253    4.926084    2.003582
  H      1.806733    5.727238    1.616762
  H      2.424023    4.976442    3.093807
  H      3.466215    5.112474    1.662280
  C      1.750776    3.623287   -0.018743
  H      0.993213    4.376647   -0.250561
  H      2.674967    3.887472   -0.539748
  H      1.395643    2.664113   -0.405584
  C      3.834362    1.864540    1.000031
  H      4.577331    2.645149    0.804638
  H      4.354702    0.995708    1.411990
  H      3.382694    1.564141    0.052771
  C      3.396374    2.558359    3.371178
  H      3.806110    1.610822    3.729982
  H     -3.128448    0.394954    3.083168
  H     -4.365515   -0.499563    3.983777
  H     -5.792219   -2.360789    1.080116
  H     -4.461038   -2.933621    2.097092
  H     -5.839055   -2.113658    2.827481
  H     -5.453446    0.856401   -1.661412
  H     -4.514205    1.673235   -0.409041
  H     -4.873820   -1.349935   -2.428792
  H     -3.845066   -2.426119   -1.486884
  H     -5.469927   -2.023148   -0.911212
  H     -2.334400    0.971820   -1.076335
  H     -2.051136   -0.666690   -1.685129
  H     -3.180030    0.402324   -2.529949
  H     -6.840611    1.342287    0.364306
  H     -6.713126   -0.391560    0.126629
  B     -1.048807    0.951900    1.401531
  H     -2.016536    1.604033    1.120692
  H     -0.097771    1.482295    0.779412
  C      1.939248    3.579205    1.498934
  C      2.776721    2.342780    1.988088
  O      0.647831    3.323905    2.079069
  O      1.783376    1.311186    2.118255
  B      0.527615    1.931946    2.164406
  H      4.205815    3.295003    3.348078
  H      2.640089    2.891247    4.087782
  C     -0.686438    1.329872    3.062196
  C     -0.389305    0.317953    4.008524
  C     -1.032242    0.599498    5.200454
  H      0.239784   -0.533784    3.789289
  C     -1.733888    1.790691    4.993213
  H     -1.018081    0.024712    6.114496
  H     -2.366618    2.342415    5.676596
  N     -1.537919    2.226811    3.749190
  C     -2.126844    3.431836    3.190201
  H     -1.335514    4.123893    2.901200
  H     -2.714410    3.174797    2.306587
  H     -2.775660    3.883747    3.941267

----------------------------
CARTESIAN COORDINATES (A.U.)
----------------------------
  NO LB      ZA    FRAG     MASS         X           Y           Z
   0 C     6.0000    0    12.011   -4.269107   -2.524393    1.541232
   1 C     6.0000    0    12.011   -2.026465   -1.181716    2.096432
   2 C     6.0000    0    12.011    0.236164   -2.564765    2.189405
   3 C     6.0000    0    12.011    0.320714   -5.166341    1.830108
   4 C     6.0000    0    12.011   -1.899843   -6.472777    1.323449
   5 C     6.0000    0    12.011   -4.162428   -5.147133    1.168351
   6 H     1.0000    0     1.008    1.988510   -1.556019    2.564359
   7 H     1.0000    0     1.008    2.113258   -6.163170    1.936251
   8 H     1.0000    0     1.008   -1.876613   -8.505462    1.030017
   9 H     1.0000    0     1.008   -5.890893   -6.164932    0.741511
  10 N     7.0000    0    14.007   -6.634631   -1.209366    1.314612
  11 C     6.0000    0    12.011   -8.416605   -1.440259    3.461490
  12 C     6.0000    0    12.011   -7.535074   -0.741121   -1.299115
  13 C     6.0000    0    12.011  -10.373592    0.708008    3.297028
  14 C     6.0000    0    12.011   -6.944846   -1.033916    5.924401
  15 C     6.0000    0    12.011   -9.787643   -4.010763    3.689145
  16 C     6.0000    0    12.011   -9.511342    1.393636   -1.239201
  17 C     6.0000    0    12.011   -8.660534   -3.068472   -2.661407
  18 C     6.0000    0    12.011   -5.312160    0.199998   -2.914778
  19 H     1.0000    0     1.008  -11.804328    0.417214    4.767874
  20 H     1.0000    0     1.008   -9.400847    2.488822    3.736423
  21 C     6.0000    0    12.011  -11.587273    0.956954    0.702918
  22 H     1.0000    0     1.008   -5.586308   -2.546887    6.287194
  23 C     6.0000    0    12.011    4.615190    9.308949    3.786220
  24 H     1.0000    0     1.008    3.414230   10.822912    3.055237
  25 H     1.0000    0     1.008    4.580740    9.404113    5.846449
  26 H     1.0000    0     1.008    6.550196    9.661175    3.141255
  27 C     6.0000    0    12.011    3.308487    6.847019   -0.035419
  28 H     1.0000    0     1.008    1.876901    8.270664   -0.473491
  29 H     1.0000    0     1.008    5.054956    7.346257   -1.019975
  30 H     1.0000    0     1.008    2.637382    5.034444   -0.766443
  31 C     6.0000    0    12.011    7.245894    3.523471    1.889786
  32 H     1.0000    0     1.008    8.649902    4.998608    1.520546
  33 H     1.0000    0     1.008    8.229194    1.881616    2.668274
  34 H     1.0000    0     1.008    6.392365    2.955798    0.099724
  35 C     6.0000    0    12.011    6.418218    4.834598    6.370604
  36 H     1.0000    0     1.008    7.192506    3.044012    7.048644
  37 H     1.0000    0     1.008   -5.911910    0.746355    5.826342
  38 H     1.0000    0     1.008   -8.249628   -0.944037    7.528247
  39 H     1.0000    0     1.008  -10.945708   -4.461244    2.041124
  40 H     1.0000    0     1.008   -8.430140   -5.543741    3.962929
  41 H     1.0000    0     1.008  -11.034215   -3.994234    5.343165
  42 H     1.0000    0     1.008  -10.305519    1.618363   -3.139614
  43 H     1.0000    0     1.008   -8.530611    3.161956   -0.772975
  44 H     1.0000    0     1.008   -9.210185   -2.551008   -4.589752
  45 H     1.0000    0     1.008   -7.266121   -4.584701   -2.809804
  46 H     1.0000    0     1.008  -10.336663   -3.823195   -1.721941
  47 H     1.0000    0     1.008   -4.411376    1.836474   -2.033979
  48 H     1.0000    0     1.008   -3.876085   -1.259861   -3.184433
  49 H     1.0000    0     1.008   -6.009387    0.760283   -4.780910
  50 H     1.0000    0     1.008  -12.926882    2.536555    0.688439
  51 H     1.0000    0     1.008  -12.685969   -0.739940    0.239294
  52 B     5.0000    0    10.810   -1.981959    1.798830    2.648510
  53 H     1.0000    0     1.008   -3.810701    3.031184    2.117801
  54 H     1.0000    0     1.008   -0.184761    2.801133    1.472876
  55 C     6.0000    0    12.011    3.664648    6.763717    2.832575
  56 C     6.0000    0    12.011    5.247243    4.427212    3.756942
  57 O     8.0000    0    15.999    1.224223    6.281270    3.928871
  58 O     8.0000    0    15.999    3.370093    2.477782    4.002921
  59 B     5.0000    0    10.810    0.997047    3.650849    4.090135
  60 H     1.0000    0     1.008    7.947838    6.226653    6.326950
  61 H     1.0000    0     1.008    4.989046    5.463666    7.724789
  62 C     6.0000    0    12.011   -1.297180    2.513094    5.786712
  63 C     6.0000    0    12.011   -0.735679    0.600844    7.575013
  64 C     6.0000    0    12.011   -1.950654    1.132886    9.827433
  65 H     1.0000    0     1.008    0.453125   -1.008705    7.160719
  66 C     6.0000    0    12.011   -3.276574    3.383915    9.435806
  67 H     1.0000    0     1.008   -1.923894    0.046699   11.554723
  68 H     1.0000    0     1.008   -4.472261    4.426523   10.727211
  69 N     7.0000    0    14.007   -2.906245    4.208063    7.084943
  70 C     6.0000    0    12.011   -4.019153    6.485230    6.028605
  71 H     1.0000    0     1.008   -2.523755    7.793028    5.482474
  72 H     1.0000    0     1.008   -5.129492    5.999497    4.358818
  73 H     1.0000    0     1.008   -5.245236    7.339219    7.447915

--------------------------------
INTERNAL COORDINATES (ANGSTROEM)
--------------------------------
 C      0   0   0     0.000000000000     0.00000000     0.00000000
 C      1   0   0     1.414049542470     0.00000000     0.00000000
 C      2   1   0     1.404161630206   117.45309757     0.00000000
 C      3   2   1     1.390481643522   122.59512794   358.17232093
 C      4   3   2     1.389465788936   119.45862421     0.89707555
 C      5   4   3     1.390103125503   119.25608384     0.44643446
 H      3   2   1     1.088212150576   118.51101361   178.39178003
 H      4   3   2     1.086831373235   120.10326158   180.58336855
 H      5   4   3     1.086869903367   120.69195425   179.79241951
 H      6   5   4     1.085226283706   119.19454544   178.98522765
 N      1   2   3     1.437215615683   120.33292975   182.55467732
 C     11   1   2     1.481491049763   116.77348963   255.81663279
 C     11   1   2     1.483737765227   115.99873069   101.74536409
 C     12  11   1     1.540251162533   108.89030643   161.66854815
 C     12  11   1     1.533438630432   108.47710713    46.00636401
 C     12  11   1     1.546344055213   115.52661687   285.69122633
 C     13  11   1     1.539751908915   108.75055221   199.11554136
 C     13  11   1     1.546344536019   115.16713536    75.93523934
 C     13  11   1     1.537113351445   109.07739615   315.56362305
 H     14  12  11     1.096681302713   108.69351516   174.09898918
 H     14  12  11     1.098676650664   107.82394539   289.84432883
 C     14  12  11     1.521271533261   113.50042197    49.84690967
 H     15  12  11     1.093020210927   112.37233467   293.10501915
 C      7   3   2     5.950360153502   133.85556419   355.12212729
 H     24   7   3     1.093327281304   122.26281089   339.25491412
 H     24   7   3     1.091540505721    98.58104981    97.01945004
 H     24   7   3     1.095319228338   110.42268935   210.62399463
 C     24   7   3     2.503041748347    49.06207443   289.74853505
 H     28  24   7     1.093248754330    90.23392917   129.80565501
 H     28  24   7     1.093329213680    91.47416516   238.37213736
 H     28  24   7     1.093517346951   146.31267724     6.10107519
 C     30  28  24     2.794166615907    85.02067836    79.53988205
 H     32  30  28     1.095231584687    70.55855645   211.40891576
 H     32  30  28     1.093312534073   168.65362173   126.22507546
 H     32  30  28     1.091579318257    63.21379629    87.30282956
 C     32  30  28     2.509094395624   104.36769933   301.86876439
 H     36  32  30     1.092909236201    90.29036302   173.72317962
 H     15  12  11     1.090405153909   109.59103252    53.37334098
 H     15  12  11     1.095135301142   110.15503465   172.53403956
 H     16  12  11     1.092212041756   113.14371552   299.33718075
 H     16  12  11     1.093208061056   110.77927840    61.05584215
 H     16  12  11     1.096048076037   109.72909073   179.21553365
 H     17  13  11     1.096405063060   108.72532876   185.24651162
 H     17  13  11     1.098110378764   107.98831851    69.31207405
 H     18  13  11     1.095843835494   109.71386212   181.88585159
 H     18  13  11     1.092896447919   110.98803160   300.17671769
 H     18  13  11     1.092416381885   113.06230745    61.98635017
 H     19  13  11     1.092885306184   110.68895700   306.08812151
 H     19  13  11     1.093005837475   112.06730832    66.98637956
 H     19  13  11     1.095089352914   109.35768049   186.62652208
 H     22  14  12     1.096035748402   110.20665694   181.24429972
 H     22  14  12     1.097520402282   110.76356369    63.96107358
 B      2   1   3     1.604238286881   122.96786710   180.81310978
 H     53   2   1     1.200270137460   118.66782637   345.70192760
 H     53   2   1     1.254121792302   109.66983188   224.58031275
 C     24   7   3     1.523734329858    14.71637290   305.03988748
 C     32  30  28     1.524327144659    80.91839728   327.89248036
 O     56  24  26     1.438573659690   108.64203129    53.32941290
 O     57  32  30     1.438007058187   108.23381268   110.73229494
 B     58  56  24     1.399744136354   106.15071795   208.70840784
 H     36  32  30     1.094701441862    92.12397192   281.99558197
 H     36  32  30     1.093756422079   145.48894822    50.28670734
 C     60  58  56     1.625559770868   117.78360296   167.37402770
 C     63  60  58     1.416970607921   118.47296065   228.95769070
 C     64  63  60     1.383232483983   109.43043181   135.28395252
 H     64  63  60     1.081328278253   123.30560937   314.67369217
 C     65  64  63     1.397926080012   106.19999449     0.09434517
 H     65  64  63     1.079839164825   127.94879982   179.48234210
 H     67  65  64     1.082477771233   129.35344019   179.55857443
 N     67  65  64     1.332741112532   110.08528833   359.86393065
 C     70  67  65     1.453061121858   124.81091158   179.44385875
 H     71  70  67     1.090260212755   109.52446342   118.65535459
 H     71  70  67     1.091822035580   109.52477214   238.13967711
 H     71  70  67     1.090544220334   108.65335835   357.78164295

---------------------------
INTERNAL COORDINATES (A.U.)
---------------------------
 C      0   0   0     0.000000000000     0.00000000     0.00000000
 C      1   0   0     2.672166375065     0.00000000     0.00000000
 C      2   1   0     2.653480928849   117.45309757     0.00000000
 C      3   2   1     2.627629500502   122.59512794   358.17232093
 C      4   3   2     2.625709813542   119.45862421     0.89707555
 C      5   4   3     2.626914205108   119.25608384     0.44643446
 H      3   2   1     2.056422940193   118.51101361   178.39178003
 H      4   3   2     2.053813649167   120.10326158   180.58336855
 H      5   4   3     2.053886460564   120.69195425   179.79241951
 H      6   5   4     2.050780469537   119.19454544   178.98522765
 N      1   2   3     2.715943909036   120.33292975   182.55467732
 C     11   1   2     2.799612353907   116.77348963   255.81663279
 C     11   1   2     2.803858030835   115.99873069   101.74536409
 C     12  11   1     2.910652874641   108.89030643   161.66854815
 C     12  11   1     2.897779054691   108.47710713    46.00636401
 C     12  11   1     2.922166773170   115.52661687   285.69122633
 C     13  11   1     2.909709422031   108.75055221   199.11554136
 C     13  11   1     2.922167681762   115.16713536    75.93523934
 C     13  11   1     2.904723271024   109.07739615   315.56362305
 H     14  12  11     2.072427318320   108.69351516   174.09898918
 H     14  12  11     2.076197979489   107.82394539   289.84432883
 C     14  12  11     2.874786573194   113.50042197    49.84690967
 H     15  12  11     2.065508857493   112.37233467   293.10501915
 C      7   3   2    11.244551088316   133.85556419   355.12212729
 H     24   7   3     2.066089136410   122.26281089   339.25491412
 H     24   7   3     2.062712619894    98.58104981    97.01945004
 H     24   7   3     2.069853370777   110.42268935   210.62399463
 C     24   7   3     4.730063406148    49.06207443   289.74853505
 H     28  24   7     2.065940741935    90.23392917   129.80565501
 H     28  24   7     2.066092788071    91.47416516   238.37213736
 H     28  24   7     2.066448308429   146.31267724     6.10107519
 C     30  28  24     5.280209676610    85.02067836    79.53988205
 H     32  30  28     2.069687748278    70.55855645   211.40891576
 H     32  30  28     2.066061268182   168.65362173   126.22507546
 H     32  30  28     2.062785964958    63.21379629    87.30282956
 C     32  30  28     4.741501251886   104.36769933   301.86876439
 H     36  32  30     2.065299145654    90.29036302   173.72317962
 H     15  12  11     2.060567115904   109.59103252    53.37334098
 H     15  12  11     2.069505798748   110.15503465   172.53403956
 H     16  12  11     2.063981639090   113.14371552   299.33718075
 H     16  12  11     2.065863842790   110.77927840    61.05584215
 H     16  12  11     2.071230693321   109.72909073   179.21553365
 H     17  13  11     2.071905301029   108.72532876   185.24651162
 H     17  13  11     2.075127880680   107.98831851    69.31207405
 H     18  13  11     2.070844734630   109.71386212   181.88585159
 H     18  13  11     2.065274979303   110.98803160   300.17671769
 H     18  13  11     2.064367785971   113.06230745    61.98635017
 H     19  13  11     2.065253924474   110.68895700   306.08812151
 H     19  13  11     2.065481695605   112.06730832    66.98637956
 H     19  13  11     2.069418969181   109.35768049   186.62652208
 H     22  14  12     2.071207397467   110.20665694   181.24429972
 H     22  14  12     2.074012986705   110.76356369    63.96107358
 B      2   1   3     3.031571015756   122.96786710   180.81310978
 H     53   2   1     2.268181846523   118.66782637   345.70192760
 H     53   2   1     2.369946726033   109.66983188   224.58031275
 C     24   7   3     2.879440584286    14.71637290   305.03988748
 C     32  30  28     2.880560841908    80.91839728   327.89248036
 O     56  24  26     2.718510240286   108.64203129    53.32941290
 O     57  32  30     2.717439518619   108.23381268   110.73229494
 B     58  56  24     2.645133075271   106.15071795   208.70840784
 H     36  32  30     2.068685923528    92.12397192   281.99558197
 H     36  32  30     2.066900094947   145.48894822    50.28670734
 C     60  58  56     3.071862781260   117.78360296   167.37402770
 C     63  60  58     2.677686388787   118.47296065   228.95769070
 C     64  63  60     2.613930574272   109.43043181   135.28395252
 H     64  63  60     2.043414306762   123.30560937   314.67369217
 C     65  64  63     2.641697446689   106.19999449     0.09434517
 H     65  64  63     2.040600290202   127.94879982   179.48234210
 H     67  65  64     2.045586533688   129.35344019   179.55857443
 N     67  65  64     2.518515710104   110.08528833   359.86393065
 C     70  67  65     2.745887576160   124.81091158   179.44385875
 H     71  70  67     2.060293216818   109.52446342   118.65535459
 H     71  70  67     2.063244634227   109.52477214   238.13967711
 H     71  70  67     2.060829913361   108.65335835   357.78164295

---------------------
BASIS SET INFORMATION
---------------------
There are 5 groups of distinct atoms

 Group   1 Type C   : 10s4p1d contracted to 3s2p1d pattern {631/31/1}
 Group   2 Type H   : 4s1p contracted to 2s1p pattern {31/1}
 Group   3 Type N   : 10s4p1d contracted to 3s2p1d pattern {631/31/1}
 Group   4 Type B   : 10s4p1d contracted to 3s2p1d pattern {631/31/1}
 Group   5 Type O   : 10s4p1d contracted to 3s2p1d pattern {631/31/1}

Atom   0C    basis set group =>   1
Atom   1C    basis set group =>   1
Atom   2C    basis set group =>   1
Atom   3C    basis set group =>   1
Atom   4C    basis set group =>   1
Atom   5C    basis set group =>   1
Atom   6H    basis set group =>   2
Atom   7H    basis set group =>   2
Atom   8H    basis set group =>   2
Atom   9H    basis set group =>   2
Atom  10N    basis set group =>   3
Atom  11C    basis set group =>   1
Atom  12C    basis set group =>   1
Atom  13C    basis set group =>   1
Atom  14C    basis set group =>   1
Atom  15C    basis set group =>   1
Atom  16C    basis set group =>   1
Atom  17C    basis set group =>   1
Atom  18C    basis set group =>   1
Atom  19H    basis set group =>   2
Atom  20H    basis set group =>   2
Atom  21C    basis set group =>   1
Atom  22H    basis set group =>   2
Atom  23C    basis set group =>   1
Atom  24H    basis set group =>   2
Atom  25H    basis set group =>   2
Atom  26H    basis set group =>   2
Atom  27C    basis set group =>   1
Atom  28H    basis set group =>   2
Atom  29H    basis set group =>   2
Atom  30H    basis set group =>   2
Atom  31C    basis set group =>   1
Atom  32H    basis set group =>   2
Atom  33H    basis set group =>   2
Atom  34H    basis set group =>   2
Atom  35C    basis set group =>   1
Atom  36H    basis set group =>   2
Atom  37H    basis set group =>   2
Atom  38H    basis set group =>   2
Atom  39H    basis set group =>   2
Atom  40H    basis set group =>   2
Atom  41H    basis set group =>   2
Atom  42H    basis set group =>   2
Atom  43H    basis set group =>   2
Atom  44H    basis set group =>   2
Atom  45H    basis set group =>   2
Atom  46H    basis set group =>   2
Atom  47H    basis set group =>   2
Atom  48H    basis set group =>   2
Atom  49H    basis set group =>   2
Atom  50H    basis set group =>   2
Atom  51H    basis set group =>   2
Atom  52B    basis set group =>   4
Atom  53H    basis set group =>   2
Atom  54H    basis set group =>   2
Atom  55C    basis set group =>   1
Atom  56C    basis set group =>   1
Atom  57O    basis set group =>   5
Atom  58O    basis set group =>   5
Atom  59B    basis set group =>   4
Atom  60H    basis set group =>   2
Atom  61H    basis set group =>   2
Atom  62C    basis set group =>   1
Atom  63C    basis set group =>   1
Atom  64C    basis set group =>   1
Atom  65H    basis set group =>   2
Atom  66C    basis set group =>   1
Atom  67H    basis set group =>   2
Atom  68H    basis set group =>   2
Atom  69N    basis set group =>   3
Atom  70C    basis set group =>   1
Atom  71H    basis set group =>   2
Atom  72H    basis set group =>   2
Atom  73H    basis set group =>   2
---------------------------------
AUXILIARY/J BASIS SET INFORMATION
---------------------------------
There are 5 groups of distinct atoms

 Group   1 Type C   : 12s5p4d2f1g contracted to 6s4p3d1f1g pattern {711111/2111/211/2/1}
 Group   2 Type H   : 5s2p1d contracted to 3s1p1d pattern {311/2/1}
 Group   3 Type N   : 12s5p4d2f1g contracted to 6s4p3d1f1g pattern {711111/2111/211/2/1}
 Group   4 Type B   : 12s5p4d2f1g contracted to 6s4p3d1f1g pattern {711111/2111/211/2/1}
 Group   5 Type O   : 12s5p4d2f1g contracted to 6s4p3d1f1g pattern {711111/2111/211/2/1}

Atom   0C    basis set group =>   1
Atom   1C    basis set group =>   1
Atom   2C    basis set group =>   1
Atom   3C    basis set group =>   1
Atom   4C    basis set group =>   1
Atom   5C    basis set group =>   1
Atom   6H    basis set group =>   2
Atom   7H    basis set group =>   2
Atom   8H    basis set group =>   2
Atom   9H    basis set group =>   2
Atom  10N    basis set group =>   3
Atom  11C    basis set group =>   1
Atom  12C    basis set group =>   1
Atom  13C    basis set group =>   1
Atom  14C    basis set group =>   1
Atom  15C    basis set group =>   1
Atom  16C    basis set group =>   1
Atom  17C    basis set group =>   1
Atom  18C    basis set group =>   1
Atom  19H    basis set group =>   2
Atom  20H    basis set group =>   2
Atom  21C    basis set group =>   1
Atom  22H    basis set group =>   2
Atom  23C    basis set group =>   1
Atom  24H    basis set group =>   2
Atom  25H    basis set group =>   2
Atom  26H    basis set group =>   2
Atom  27C    basis set group =>   1
Atom  28H    basis set group =>   2
Atom  29H    basis set group =>   2
Atom  30H    basis set group =>   2
Atom  31C    basis set group =>   1
Atom  32H    basis set group =>   2
Atom  33H    basis set group =>   2
Atom  34H    basis set group =>   2
Atom  35C    basis set group =>   1
Atom  36H    basis set group =>   2
Atom  37H    basis set group =>   2
Atom  38H    basis set group =>   2
Atom  39H    basis set group =>   2
Atom  40H    basis set group =>   2
Atom  41H    basis set group =>   2
Atom  42H    basis set group =>   2
Atom  43H    basis set group =>   2
Atom  44H    basis set group =>   2
Atom  45H    basis set group =>   2
Atom  46H    basis set group =>   2
Atom  47H    basis set group =>   2
Atom  48H    basis set group =>   2
Atom  49H    basis set group =>   2
Atom  50H    basis set group =>   2
Atom  51H    basis set group =>   2
Atom  52B    basis set group =>   4
Atom  53H    basis set group =>   2
Atom  54H    basis set group =>   2
Atom  55C    basis set group =>   1
Atom  56C    basis set group =>   1
Atom  57O    basis set group =>   5
Atom  58O    basis set group =>   5
Atom  59B    basis set group =>   4
Atom  60H    basis set group =>   2
Atom  61H    basis set group =>   2
Atom  62C    basis set group =>   1
Atom  63C    basis set group =>   1
Atom  64C    basis set group =>   1
Atom  65H    basis set group =>   2
Atom  66C    basis set group =>   1
Atom  67H    basis set group =>   2
Atom  68H    basis set group =>   2
Atom  69N    basis set group =>   3
Atom  70C    basis set group =>   1
Atom  71H    basis set group =>   2
Atom  72H    basis set group =>   2
Atom  73H    basis set group =>   2


           ************************************************************
           *        Program running with 24 parallel MPI-processes    *
           *              working on a common directory               *
           ************************************************************
------------------------------------------------------------------------------
                             ORCA STARTUP CALCULATIONS
                           -- RI-GTO INTEGRALS CHOSEN --
------------------------------------------------------------------------------
------------------------------------------------------------------------------
                   ___                                                        
                  /   \      - P O W E R E D   B Y -                         
                 /     \                                                     
                 |  |  |   _    _      __       _____    __    __             
                 |  |  |  | |  | |    /  \     |  _  \  |  |  /  |          
                  \  \/   | |  | |   /    \    | | | |  |  | /  /          
                 / \  \   | |__| |  /  /\  \   | |_| |  |  |/  /          
                |  |  |   |  __  | /  /__\  \  |    /   |      \           
                |  |  |   | |  | | |   __   |  |    \   |  |\   \          
                \     /   | |  | | |  |  |  |  | |\  \  |  | \   \       
                 \___/    |_|  |_| |__|  |__|  |_| \__\ |__|  \__/        
                                                                              
                      - O R C A' S   B I G   F R I E N D -                    
                                      &                                       
                       - I N T E G R A L  F E E D E R -                       
                                                                              
 v1 FN, 2020, v2 2021, v3 2022-2024                                           
------------------------------------------------------------------------------


----------------------
SHARK INTEGRAL PACKAGE
----------------------

Number of atoms                             ...     74
Number of basis functions                   ...    658
Number of shells                            ...    318
Maximum angular momentum                    ...      2
Integral batch strategy                     ... SHARK/LIBINT Hybrid
RI-J (if used) integral strategy            ... SPLIT-RIJ (Revised 2003 algorithm where possible)
Printlevel                                  ...      1
Contraction scheme used                     ... SEGMENTED contraction
Prescreening option                         ... SCHWARTZ
   Thresh                                   ... 2.500e-11
   Tcut                                     ... 2.500e-12
   Tpresel                                  ... 2.500e-12 
Coulomb Range Separation                    ... NOT USED
Exchange Range Separation                   ... Long Range
   Mu parameter                             ... 2.500e-01
   Scaling (regular/separated)              ... 1.957e-01 8.043e-01
Multipole approximations                    ... NOT USED
Finite Nucleus Model                        ... NOT USED
CABS basis                                  ... NOT available
Auxiliary Coulomb fitting basis             ... AVAILABLE
   # of basis functions in Aux-J            ...   2030
   # of shells in Aux-J                     ...    690
   Maximum angular momentum in Aux-J        ...      4
Auxiliary J/K fitting basis                 ... NOT available
Auxiliary Correlation fitting basis         ... NOT available
Auxiliary 'external' fitting basis          ... NOT available

Checking pre-screening integrals            ... done (  0.0 sec) Dimension = 318
Check shell pair data                       ... done (  0.0 sec)
Shell pair information
Shell pair cut-off parameter TPreSel        ...   2.5e-12
Total number of shell pairs                 ...     50721
Shell pairs after pre-screening             ...     31774
Total number of primitive shell pairs       ...    239193
Primitive shell pairs kept                  ...     83357
          la=0 lb=0:  10451 shell pairs
          la=1 lb=0:  12094 shell pairs
          la=1 lb=1:   3577 shell pairs
          la=2 lb=0:   3409 shell pairs
          la=2 lb=1:   1962 shell pairs
          la=2 lb=2:    281 shell pairs

Calculating one electron integrals          ... done (  0.0 sec)
Calculating RI/J V-Matrix + Cholesky decomp.... done (  0.3 sec)
Calculating Nuclear repulsion               ... done (  0.0 sec) ENN=   3599.924968179471 Eh

Diagonalization of the overlap matrix:
Smallest eigenvalue                        ... 4.057e-04
Time for diagonalization                   ...    0.072 sec
Threshold for overlap eigenvalues          ... 1.000e-07
Number of eigenvalues below threshold      ... 0
Time for construction of square roots      ...    0.054 sec
Total time needed                          ...    0.134 sec

-------------------
DFT GRID GENERATION
-------------------

General Integration Accuracy     IntAcc      ... 4.388
Radial Grid Type                 RadialGrid  ... OptM3 with GC (2021)
Angular Grid (max. ang.)         AngularGrid ... 4 (Lebedev-302)
Angular grid pruning method      GridPruning ... 4 (adaptive)
Weight generation scheme         WeightScheme... mBecke (2022)
Basis function cutoff            BFCut       ... 1.0000e-11
Integration weight cutoff        WCut        ... 1.0000e-14
Partially contracted basis set               ... off
Rotationally invariant grid construction     ... off
[...]
      cause some error
  (4) All equations used are the standard statistical mechanics
      equations for an ideal gas
  (5) All vibrations are strictly harmonic

freq.      23.17  E(vib)   ...       0.56 
freq.      32.85  E(vib)   ...       0.55 
freq.      35.69  E(vib)   ...       0.54 
freq.      49.63  E(vib)   ...       0.52 
freq.      58.96  E(vib)   ...       0.51 
freq.      70.00  E(vib)   ...       0.50 
freq.      80.69  E(vib)   ...       0.48 
freq.      93.11  E(vib)   ...       0.47 
freq.     101.61  E(vib)   ...       0.46 
freq.     103.48  E(vib)   ...       0.46 
freq.     124.25  E(vib)   ...       0.43 
freq.     127.68  E(vib)   ...       0.43 
freq.     142.17  E(vib)   ...       0.41 
freq.     158.56  E(vib)   ...       0.39 
freq.     172.88  E(vib)   ...       0.38 
freq.     178.94  E(vib)   ...       0.37 
freq.     209.56  E(vib)   ...       0.34 
freq.     210.41  E(vib)   ...       0.34 
freq.     217.90  E(vib)   ...       0.33 
freq.     228.24  E(vib)   ...       0.32 
freq.     234.85  E(vib)   ...       0.32 
freq.     247.62  E(vib)   ...       0.31 
freq.     254.97  E(vib)   ...       0.30 
freq.     259.81  E(vib)   ...       0.30 
freq.     284.61  E(vib)   ...       0.28 
freq.     288.56  E(vib)   ...       0.27 
freq.     291.73  E(vib)   ...       0.27 
freq.     296.16  E(vib)   ...       0.27 
freq.     301.53  E(vib)   ...       0.26 
freq.     310.18  E(vib)   ...       0.26 
freq.     312.84  E(vib)   ...       0.25 
freq.     317.02  E(vib)   ...       0.25 
freq.     326.23  E(vib)   ...       0.24 
freq.     332.48  E(vib)   ...       0.24 
freq.     341.73  E(vib)   ...       0.23 
freq.     351.59  E(vib)   ...       0.23 
freq.     359.68  E(vib)   ...       0.22 
freq.     366.70  E(vib)   ...       0.22 
freq.     370.13  E(vib)   ...       0.21 
freq.     398.39  E(vib)   ...       0.20 
freq.     404.44  E(vib)   ...       0.19 
freq.     413.11  E(vib)   ...       0.19 
freq.     416.99  E(vib)   ...       0.18 
freq.     441.70  E(vib)   ...       0.17 
freq.     447.68  E(vib)   ...       0.17 
freq.     475.07  E(vib)   ...       0.15 
freq.     477.04  E(vib)   ...       0.15 
freq.     489.09  E(vib)   ...       0.15 
freq.     498.91  E(vib)   ...       0.14 
freq.     524.23  E(vib)   ...       0.13 
freq.     531.89  E(vib)   ...       0.13 
freq.     555.99  E(vib)   ...       0.12 
freq.     568.46  E(vib)   ...       0.11 
freq.     586.22  E(vib)   ...       0.11 
freq.     588.48  E(vib)   ...       0.10 
freq.     590.21  E(vib)   ...       0.10 
freq.     604.37  E(vib)   ...       0.10 
freq.     608.65  E(vib)   ...       0.10 
freq.     617.80  E(vib)   ...       0.09 
freq.     632.15  E(vib)   ...       0.09 
freq.     678.44  E(vib)   ...       0.08 
freq.     686.53  E(vib)   ...       0.07 
freq.     701.67  E(vib)   ...       0.07 
freq.     722.21  E(vib)   ...       0.07 
freq.     769.45  E(vib)   ...       0.06 
freq.     777.23  E(vib)   ...       0.05 
freq.     787.47  E(vib)   ...       0.05 
freq.     789.25  E(vib)   ...       0.05 
freq.     794.05  E(vib)   ...       0.05 
freq.     810.61  E(vib)   ...       0.05 
freq.     827.87  E(vib)   ...       0.04 
freq.     843.44  E(vib)   ...       0.04 
freq.     881.39  E(vib)   ...       0.04 
freq.     891.34  E(vib)   ...       0.04 
freq.     893.12  E(vib)   ...       0.03 
freq.     896.51  E(vib)   ...       0.03 
freq.     898.58  E(vib)   ...       0.03 
freq.     911.10  E(vib)   ...       0.03 
freq.     925.96  E(vib)   ...       0.03 
freq.     933.85  E(vib)   ...       0.03 
freq.     936.32  E(vib)   ...       0.03 
freq.     936.95  E(vib)   ...       0.03 
freq.     946.50  E(vib)   ...       0.03 
freq.     948.65  E(vib)   ...       0.03 
freq.     949.07  E(vib)   ...       0.03 
freq.     963.72  E(vib)   ...       0.03 
freq.     976.95  E(vib)   ...       0.03 
freq.     989.76  E(vib)   ...       0.02 
freq.     998.75  E(vib)   ...       0.02 
freq.     999.12  E(vib)   ...       0.02 
freq.     999.43  E(vib)   ...       0.02 
freq.    1016.56  E(vib)   ...       0.02 
freq.    1017.82  E(vib)   ...       0.02 
freq.    1021.36  E(vib)   ...       0.02 
freq.    1026.64  E(vib)   ...       0.02 
freq.    1029.26  E(vib)   ...       0.02 
freq.    1033.75  E(vib)   ...       0.02 
freq.    1059.49  E(vib)   ...       0.02 
freq.    1076.76  E(vib)   ...       0.02 
freq.    1086.57  E(vib)   ...       0.02 
freq.    1088.05  E(vib)   ...       0.02 
freq.    1091.80  E(vib)   ...       0.02 
freq.    1096.20  E(vib)   ...       0.02 
freq.    1116.87  E(vib)   ...       0.01 
freq.    1119.97  E(vib)   ...       0.01 
freq.    1129.10  E(vib)   ...       0.01 
freq.    1136.53  E(vib)   ...       0.01 
freq.    1140.79  E(vib)   ...       0.01 
freq.    1156.56  E(vib)   ...       0.01 
freq.    1161.26  E(vib)   ...       0.01 
freq.    1189.17  E(vib)   ...       0.01 
freq.    1192.57  E(vib)   ...       0.01 
freq.    1194.66  E(vib)   ...       0.01 
freq.    1206.24  E(vib)   ...       0.01 
freq.    1220.40  E(vib)   ...       0.01 
freq.    1225.89  E(vib)   ...       0.01 
freq.    1236.89  E(vib)   ...       0.01 
freq.    1243.69  E(vib)   ...       0.01 
freq.    1249.55  E(vib)   ...       0.01 
freq.    1253.12  E(vib)   ...       0.01 
freq.    1267.18  E(vib)   ...       0.01 
freq.    1268.62  E(vib)   ...       0.01 
freq.    1272.93  E(vib)   ...       0.01 
freq.    1280.10  E(vib)   ...       0.01 
freq.    1287.81  E(vib)   ...       0.01 
freq.    1308.25  E(vib)   ...       0.01 
freq.    1309.93  E(vib)   ...       0.01 
freq.    1319.14  E(vib)   ...       0.01 
freq.    1321.37  E(vib)   ...       0.01 
freq.    1332.99  E(vib)   ...       0.01 
freq.    1333.76  E(vib)   ...       0.01 
freq.    1344.24  E(vib)   ...       0.01 
freq.    1385.86  E(vib)   ...       0.00 
freq.    1405.41  E(vib)   ...       0.00 
freq.    1406.12  E(vib)   ...       0.00 
freq.    1411.88  E(vib)   ...       0.00 
freq.    1418.67  E(vib)   ...       0.00 
freq.    1420.03  E(vib)   ...       0.00 
freq.    1421.92  E(vib)   ...       0.00 
freq.    1422.73  E(vib)   ...       0.00 
freq.    1429.78  E(vib)   ...       0.00 
freq.    1430.24  E(vib)   ...       0.00 
freq.    1436.79  E(vib)   ...       0.00 
freq.    1438.77  E(vib)   ...       0.00 
freq.    1457.90  E(vib)   ...       0.00 
freq.    1483.78  E(vib)   ...       0.00 
freq.    1488.43  E(vib)   ...       0.00 
freq.    1489.05  E(vib)   ...       0.00 
freq.    1490.81  E(vib)   ...       0.00 
freq.    1491.53  E(vib)   ...       0.00 
freq.    1492.71  E(vib)   ...       0.00 
freq.    1493.95  E(vib)   ...       0.00 
freq.    1494.86  E(vib)   ...       0.00 
freq.    1499.80  E(vib)   ...       0.00 
freq.    1500.94  E(vib)   ...       0.00 
freq.    1501.55  E(vib)   ...       0.00 
freq.    1505.42  E(vib)   ...       0.00 
freq.    1510.43  E(vib)   ...       0.00 
freq.    1515.54  E(vib)   ...       0.00 
freq.    1517.43  E(vib)   ...       0.00 
freq.    1517.94  E(vib)   ...       0.00 
freq.    1518.37  E(vib)   ...       0.00 
freq.    1521.64  E(vib)   ...       0.00 
freq.    1522.08  E(vib)   ...       0.00 
freq.    1522.75  E(vib)   ...       0.00 
freq.    1531.51  E(vib)   ...       0.00 
freq.    1534.58  E(vib)   ...       0.00 
freq.    1536.93  E(vib)   ...       0.00 
freq.    1544.57  E(vib)   ...       0.00 
freq.    1547.50  E(vib)   ...       0.00 
freq.    1614.28  E(vib)   ...       0.00 
freq.    1654.49  E(vib)   ...       0.00 
freq.    1684.17  E(vib)   ...       0.00 
freq.    1688.06  E(vib)   ...       0.00 
freq.    2156.81  E(vib)   ...       0.00 
freq.    2648.86  E(vib)   ...       0.00 
freq.    3055.17  E(vib)   ...       0.00 
freq.    3059.57  E(vib)   ...       0.00 
freq.    3070.31  E(vib)   ...       0.00 
freq.    3076.45  E(vib)   ...       0.00 
freq.    3077.78  E(vib)   ...       0.00 
freq.    3078.51  E(vib)   ...       0.00 
freq.    3080.28  E(vib)   ...       0.00 
freq.    3081.12  E(vib)   ...       0.00 
freq.    3083.59  E(vib)   ...       0.00 
freq.    3084.59  E(vib)   ...       0.00 
freq.    3086.96  E(vib)   ...       0.00 
freq.    3096.18  E(vib)   ...       0.00 
freq.    3108.94  E(vib)   ...       0.00 
freq.    3111.79  E(vib)   ...       0.00 
freq.    3120.74  E(vib)   ...       0.00 
freq.    3155.35  E(vib)   ...       0.00 
freq.    3158.06  E(vib)   ...       0.00 
freq.    3160.11  E(vib)   ...       0.00 
freq.    3161.12  E(vib)   ...       0.00 
freq.    3162.32  E(vib)   ...       0.00 
freq.    3164.02  E(vib)   ...       0.00 
freq.    3165.39  E(vib)   ...       0.00 
freq.    3167.38  E(vib)   ...       0.00 
freq.    3170.56  E(vib)   ...       0.00 
freq.    3171.35  E(vib)   ...       0.00 
freq.    3182.16  E(vib)   ...       0.00 
freq.    3185.63  E(vib)   ...       0.00 
freq.    3186.30  E(vib)   ...       0.00 
freq.    3187.24  E(vib)   ...       0.00 
freq.    3187.64  E(vib)   ...       0.00 
freq.    3198.68  E(vib)   ...       0.00 
freq.    3200.47  E(vib)   ...       0.00 
freq.    3200.69  E(vib)   ...       0.00 
freq.    3208.71  E(vib)   ...       0.00 
freq.    3210.99  E(vib)   ...       0.00 
freq.    3225.92  E(vib)   ...       0.00 
freq.    3244.21  E(vib)   ...       0.00 
freq.    3276.03  E(vib)   ...       0.00 
freq.    3291.94  E(vib)   ...       0.00 
freq.    3308.58  E(vib)   ...       0.00 

------------
INNER ENERGY
------------

The inner energy is: U= E(el) + E(ZPE) + E(vib) + E(rot) + E(trans)
    E(el)   - is the total energy from the electronic structure calculation
              = E(kin-el) + E(nuc-el) + E(el-el) + E(nuc-nuc)
    E(ZPE)  - the the zero temperature vibrational energy from the frequency calculation
    E(vib)  - the the finite temperature correction to E(ZPE) due to population
              of excited vibrational states
    E(rot)  - is the rotational thermal energy
    E(trans)- is the translational thermal energy

Summary of contributions to the inner energy U:
Electronic energy                ...  -1325.54672950 Eh
Zero point energy                ...      0.65742875 Eh     412.54 kcal/mol
Thermal vibrational correction   ...      0.02944884 Eh      18.48 kcal/mol
Thermal rotational correction    ...      0.00141627 Eh       0.89 kcal/mol
Thermal translational correction ...      0.00141627 Eh       0.89 kcal/mol
-----------------------------------------------------------------------
Total thermal energy                  -1324.85701936 Eh


Summary of corrections to the electronic energy:
(perhaps to be used in another calculation)
Total thermal correction                  0.03228138 Eh      20.26 kcal/mol
Non-thermal (ZPE) correction              0.65742875 Eh     412.54 kcal/mol
-----------------------------------------------------------------------
Total correction                          0.68971014 Eh     432.80 kcal/mol


--------
ENTHALPY
--------

The enthalpy is H = U + kB*T
                kB is Boltzmann's constant
Total thermal energy              ...  -1324.85701936 Eh 
Thermal Enthalpy correction       ...      0.00094421 Eh       0.59 kcal/mol
-----------------------------------------------------------------------
Total Enthalpy                    ...  -1324.85607515 Eh


Note: Only C1 symmetry has been detected, increase convergence thresholds 
      if your molecule has a higher symmetry. Symmetry factor of 1.0 is   
      used for the rotational entropy correction. 
 

Note: Rotational entropy computed according to Herzberg 
Infrared and Raman Spectra, Chapter V,1, Van Nostrand Reinhold, 1945 
Point Group:  C1, Symmetry Number:   1  
Rotational constants in cm-1:     0.007877     0.003238     0.003045 

Vibrational entropy computed according to the QRRHO of S. Grimme
Chem.Eur.J. 2012 18 9955 using a reference frequency of 100.0 cm-1


-------
ENTROPY
-------

The entropy contributions are T*S = T*(S(el)+S(vib)+S(rot)+S(trans))
     S(el)   - electronic entropy
     S(vib)  - vibrational entropy
     S(rot)  - rotational entropy
     S(trans)- translational entropy
The entropies will be listed as multiplied by the temperature to get
units of energy

Electronic entropy                ...      0.00000000 Eh      0.00 kcal/mol
Vibrational entropy               ...      0.05084105 Eh     31.90 kcal/mol
Rotational entropy                ...      0.01723937 Eh     10.82 kcal/mol
Translational entropy             ...      0.02095749 Eh     13.15 kcal/mol
-----------------------------------------------------------------------
Final entropy term                ...      0.08903790 Eh     55.87 kcal/mol

In case the symmetry of your molecule has not been determined correctly
or in case you have a reason to use a different symmetry number we print 
out the resulting rotational entropy values for sn=1,12:

 non-linear molecules -----------------------------------
|  sn= 1 | S(rot)=       0.01723937 Eh     10.82 kcal/mol|
|  sn= 2 | S(rot)=       0.01658491 Eh     10.41 kcal/mol|
|  sn= 3 | S(rot)=       0.01620208 Eh     10.17 kcal/mol|
|  sn= 4 | S(rot)=       0.01593045 Eh     10.00 kcal/mol|
|  sn= 5 | S(rot)=       0.01571977 Eh      9.86 kcal/mol|
|  sn= 6 | S(rot)=       0.01554762 Eh      9.76 kcal/mol|
|  sn= 7 | S(rot)=       0.01540208 Eh      9.66 kcal/mol|
|  sn= 8 | S(rot)=       0.01527600 Eh      9.59 kcal/mol|
|  sn= 9 | S(rot)=       0.01516479 Eh      9.52 kcal/mol|
|  sn=10 | S(rot)=       0.01506531 Eh      9.45 kcal/mol|
|  sn=11 | S(rot)=       0.01497532 Eh      9.40 kcal/mol|
|  sn=12 | S(rot)=       0.01489316 Eh      9.35 kcal/mol|
 linear molecules ---------------------------------------
|  Dinfh | S(rot)=       0.01079668 Eh      6.78 kcal/mol|
|  Cinfv | S(rot)=       0.01145113 Eh      7.19 kcal/mol|
 --------------------------------------------------------


-------------------
GIBBS FREE ENERGY
-------------------

The Gibbs free energy is G = H - T*S

Total enthalpy                    ...  -1324.85607515 Eh 
Total entropy correction          ...     -0.08903790 Eh    -55.87 kcal/mol
-----------------------------------------------------------------------
Final Gibbs free energy         ...  -1324.94511305 Eh

For completeness - the Gibbs free energy minus the electronic energy
G-E(el)                           ...      0.60161645 Eh    377.52 kcal/mol


Maximum memory used throughout the entire PROP-calculation: 701.7 MB

--------------------------------
SUGGESTED CITATIONS FOR THIS RUN
--------------------------------

Below you find a list of papers that are relevant to this ORCA run
We neither can nor want to force you to cite these papers, but we appreciate if you do
You receive ORCA, which is the product of decades of hard work by many enthusiastic individuals, for free
The only thing we kindly ask in return is that you cite our papers,
We deeply appreciate it, if you show your appreciation for ORCA by not just citing the generic ORCA reference.

Please note that relegating all ORCA citations to the supporting information does *not* help us.
SI sections are not indexed - citations you put there will not count into any citation statistics
But we need these citations in order to attract the funding resources that allow us to do what we are doing

Therefore, if you are a happy ORCA user, please consider citing a few of the papers listed below in the main body of your paper

In addition to the list printed below, the program has created the file input.bibtex that contains the list in bibtex format
You can import this file easily into all common literature databanks and citation aid programs


List of essential papers. We consider these as the minimum necessary citations

  1. Neese,F.
     Software update: the ORCA program system, version 5.0
     WIRES Comput. Molec. Sci., 2022 12(1)e1606
     doi.org/10.1002/wcms.1606

List of papers to cite with high priority. The work reported in these papers was absolutely
necessary for this run to complete.
Our perspective: the developers of density functionals and basis sets usually get cited in chemistry papers
Good! But without the algorithms to do something with them, the functionals or basis sets would not do anything.
Hence, in our opinion, the algorithm design and method developments papers are equally worthy of getting cited

  1. Neese,F.
     An improvement of the resolution of the identity approximation for the formation of the Coulomb matrix
     J. Comp. Chem., 2003 24(14)1740-1747
     doi.org/10.1002/jcc.10318
  2. Neese,F.; Wennmohs,F.; Hansen,A.; Becker,U.
     Efficient, approximate and parallel Hartree-Fock and hybrid DFT calculations. A 'chain-of-spheres' algorithm for the Hartree-Fock exchange
     Chem. Phys., 2009 356(1-3)98-109
     doi.org/10.1016/j.chemphys.2008.10.036
  3. Bykov,D.; Petrenko,T.; Izsak,R.; Kossmann,S.; Becker,U.; Valeev,E.; Neese,F.
     Efficient implementation of the analytic second derivatives of Hartree-Fock and hybrid DFT energies: a detailed analysis of different approximations
     Molec. Phys., 2015 113 1961-1977
     doi.org/10.1080/00268976.2015.1025114
  4. Helmich-Paris,B.; de Souza,B.; Neese,F.; Izsák,R.
     An improved chain of spheres for exchange algorithm
     J. Chem. Phys., 2021 155 104109
     doi.org/doi: 10.1063/5.0058766.
  5. Neese,F.
     The SHARK Integral Generation and Digestion System
     J. Comp. Chem., 2022  1-16
     doi.org/10.1002/jcc.26942
  6. Grimme,S.; Antony,J.; Ehrlich,S.; Krieg,H.
     A consistent and accurate ab initio parametrization of density functional dispersion correction (DFT-D) for the 94 elements H-Pu
     J. Chem. Phys., 2010 132 154104
     doi.org/10.1063/1.3382344

List of suggested additional citations. These are papers that are important in the 'surrounding' of 
of this run, or papers that preceded the highly important papers. If you like your results we are grateful for a citation.

  1. Izsak,R.; Neese,F.
     An overlap fitted chain of spheres exchange method
     J. Chem. Phys., 2011 135 144105
     doi.org/10.1063/1.3646921
  2. Izsak,R.; Hansen,A.; Neese,F.
     The resolution of identity and chain of spheres approximations for the LPNO-CCSD singles Fock term
     Molec. Phys., 2012 110 2413-2417
     doi.org/10.1080/00268976.2012.687466
  3. Neese,F.
     The ORCA program system
     WIRES Comput. Molec. Sci., 2012 2(1)73-78
     doi.org/10.1002/wcms.81
  4. Izsak,R.; Neese,F.; Klopper,W.
     Robust fitting techniques in the chain of spheres approximation to the Fock exchange: The role of the complementary space
     J. Chem. Phys., 2013 139 
     doi.org/10.1063/1.4819264
  5. Neese,F.
     Software update: the ORCA program system, version 4.0
     WIRES Comput. Molec. Sci., 2018 8(1)1-6
     doi.org/10.1002/wcms.1327
  6. Neese,F.; Wennmohs,F.; Becker,U.; Riplinger,C.
     The ORCA quantum chemistry program package
     J. Chem. Phys., 2020 152 Art. No. L224108
     doi.org/10.1063/5.0004608

List of optional additional citations

  1. Neese,F.
     Approximate second-order SCF convergence for spin unrestricted wavefunctions
     Chem. Phys. Lett., 2000 325(1-3)93-98
     doi.org/10.1016/s0009-2614(00)00662-x

Timings for individual modules:

Sum of individual times          ...     2984.285 sec (=  49.738 min)
Startup calculation              ...       83.313 sec (=   1.389 min)   2.8 %
SCF iterations                   ...     1086.765 sec (=  18.113 min)  36.4 %
Property integrals               ...      373.691 sec (=   6.228 min)  12.5 %
SCF Response                     ...      650.248 sec (=  10.837 min)  21.8 %
Property calculations            ...      442.471 sec (=   7.375 min)  14.8 %
SCF Gradient evaluation          ...      346.585 sec (=   5.776 min)  11.6 %
Geometry relaxation              ...        1.212 sec (=   0.020 min)   0.0 %
                             ****ORCA TERMINATED NORMALLY****
TOTAL RUN TIME: 0 days 1 hours 15 minutes 59 seconds 406 msec
