
                                 *****************
                                 * O   R   C   A *
                                 *****************

                                            #,                                       
                                            ###                                      
                                            ####                                     
                                            #####                                    
                                            ######                                   
                                           ########,                                 
                                     ,,################,,,,,                         
                               ,,#################################,,                 
                          ,,##########################################,,             
                       ,#########################################, ''#####,          
                    ,#############################################,,   '####,        
                  ,##################################################,,,,####,       
                ,###########''''           ''''###############################       
              ,#####''   ,,,,##########,,,,          '''####'''          '####       
            ,##' ,,,,###########################,,,                        '##       
           ' ,,###''''                  '''############,,,                           
         ,,##''                                '''############,,,,        ,,,,,,###''
      ,#''                                            '''#######################'''  
     '                                                          ''''####''''         
             ,#######,   #######,   ,#######,      ##                                
            ,#'     '#,  ##    ##  ,#'     '#,    #''#        ,####,    ,#,          
            ##       ##  ##   ,#'  ##            #'  '#       #'       ,# #          
            ##       ##  #######   ##           ,######,      #####,      #          
            '#,     ,#'  ##    ##  '#,     ,#' ,#      #,     #,   #      #          
             '#######'   ##     ##  '#######'  #'      '#     '####' #    #          



                #########################################################
                #                        -***-                          #
                #          Department of theory and spectroscopy        #
                #                                                       #
                #                      Frank Neese                      #
                #                                                       #
                #     Directorship, Architecture, Infrastructure        #
                #                    SHARK, DRIVERS                     #
                #        Core code/Algorithms in most modules           #
                #                                                       #
                #        Max Planck Institute fuer Kohlenforschung      #
                #                Kaiser Wilhelm Platz 1                 #
                #                 D-45470 Muelheim/Ruhr                 #
                #                      Germany                          #
                #                                                       #
                #                  All rights reserved                  #
                #                        -***-                          #
                #########################################################


                         Program Version 6.1.0  -  RELEASE   -
                                (GIT: $679e74b$)
                          ($2025-06-10 18:02:51 +0200$)


 With contributions from (in alphabetic order):
[Max-Planck-Institut fuer Kohlenforschung]                               
  Daniel Aravena         : Magnetic Suceptibility                        
  Michael Atanasov       : Ab Initio Ligand Field Theory (pilot matlab implementation)
  Alexander A. Auer      : GIAO ZORA, VPT2 properties, NMR spectrum      
  Ute Becker             : All parallelization in ORCA, NUMFREQ, NUMCALC 
  Giovanni Bistoni       : ED, misc. LED, open-shell LED, HFLD           
  Dmytro Bykov           : pre 5.0 version of the SCF Hessian            
  Marcos Casanova-Páez   : Triplet and SCS-CIS(D). UHF-(DLPNO)-IP/EA/STEOM-CCSD. UHF-CVS-IP/STEOM-CCSD   
  Vijay G. Chilkuri      : MRCI spin determinant printing, contributions to CSF-ICE 
  Pauline Colinet        : FMM embedding                                 
  Dipayan Datta          : RHF DLPNO-CCSD density                        
  Achintya Kumar Dutta   : EOM-CC, STEOM-CC                              
  Nicolas Foglia         : Exact transition moments, OPA infrastructure, MCD improvements    
  Dmitry Ganyushin       : Spin-Orbit,Spin-Spin,Magnetic field MRCI      
  Miquel Garcia-Rates    : C-PCM and meta-GGA Hessian, CCSD/C-PCM, Gaussian charge scheme 
  Tiago L. C. Gouveia    : GS-ROHF, GS-ROCIS                             
  Yang Guo               : DLPNO-NEVPT2, F12-NEVPT2, CIM, IAO-localization        
  Andreas Hansen         : Spin unrestricted coupled pair/coupled cluster methods 
  Ingolf Harden          : AUTO-CI MPn and infrastructure                
  Benjamin Helmich-Paris : MC-RPA, TRAH-(SCF,CASSCF), AVAS, COSX integrals, SCF dyn. polar., MC-PDFT, srDFT 
  Lee Huntington         : MR-EOM, pCC                                   
  Robert Izsak           : Overlap fitted RIJCOSX, COSX-SCS-MP3, EOM     
  Riya Kayal             : Wick's Theorem for AUTO-CI, AUTO-CI UHF-CCSDT 
  Emily Kempfer          : AUTO-CI RHF CISDT and CCSDT, approximate NEVPT4
  Christian Kollmar      : KDIIS, OOCD, Brueckner-CCSD(T), CCSD density, CASPT2, CASPT2-K, improved NEVPT2 
  Axel Koslowski         : Symmetry handling                             
  Simone Kossmann        : meta-GGA functionals, TD-DFT gradient, OOMP2, (MP2 Hessian; deprecated post 5.0) 
  Lucas Lang             : DCDCAS, Hyperfine gauge corrections, ICE-SOC+SSC
  Marvin Lechner         : AUTO-CI (C++ implementation), FIC-MRCC        
  Spencer Leger          : CASSCF response                               
  Dagmar Lenk            : GEPOL surface, SMD, ORCA-2-JSON               
  Dimitrios Liakos       : Extrapolation schemes; Compound Job, Property file
  Dimitrios Manganas     : Further ROCIS development; embedding schemes. LFT, Crystal Embedding 
  Dimitrios Pantazis     : SARC Basis sets                               
  Anastasios Papadopoulos: AUTO-CI, single reference methods and gradients 
  Taras Petrenko         : pre 6.0 DFT Hessian and TD-DFT gradient,  ECA, NRVS 
  Petra Pikulova         : Analytic Raman intensities                    
  Peter Pinski           : DLPNO-MP2, DLPNO-MP2 Gradient                 
  Shashank Vittal Rao    : ES-AILFT, MagRelax                            
  Christoph Reimann      : Effective Core Potentials                     
  Marius Retegan         : Local ZFS, SOC                                
  Christoph Riplinger    : Optimizer, TS searches, QM/MM, DLPNO-CCSD(T), (RO)-DLPNO pert. Triples 
  Michael Roemelt        : Original ROCIS implementation, recursive CI coupling coefficients
  Masaaki Saitow         : Open-shell DLPNO-CCSD energy and density      
  Barbara Sandhoefer     : DKH picture change effects                    
  Yorick L. A. Schmerwitz: GMF and freeze-and-release deltaSCF, NEB S-IDPP initial path                    
  Kantharuban Sivalingam : CASSCF convergence/infrastructure, NEVPT2, NEVPT3, NEVPT4(SD), FIC-MRCI and CEPA variants
  Bernardo de Souza      : ESD, SOC TD-DFT                               
  Georgi L. Stoychev     : AutoAux, RI-MP2 NMR, DLPNO-MP2 response, X2C  
  Van Anh Tran           : RI-MP2 g-tensors                              
  Willem Van den Heuvel  : Paramagnetic NMR                              
  Zikuan Wang            : NOTCH, Electric field optimization            
  Frank Wennmohs         : Technical directorship and infrastructure     
  Hang Xu                : AUTO-CI-Response properties                   
                                                                         
[FACCTs GmbH]                                                            
  Markus Bursch, Nicolas Foglia, Miquel Garcia-Rates, Ingolf Harden, Hagen Neugebauer, Anastasios Papadopoulos, 
  Christoph Riplinger, Bernardo de Souza, Georgi L. Stoychev                                                    
                                                                 
  APM, various basis sets, CI-OPT, improved COSX, DLPNO-Multilevel,           
  DOCKER, DRACO, updates on ESD, Fragmentator, GOAT, IRC, LR-CPCM, L-BFGS, MBIS, meta-GGA TD-DFT gradient, ML-optimized integration grids, 
  MM, NACMEs, nearIR, NEB, NEB-TS, NL-DFT gradient (VV10), 2- and 3-layer-ONIOM, interface openCOSMO-RS, QMMM,   
  Crystal-QMMM, RESP, rigid body optimization, SF, symmetry and pop. for TD-DFT, various functionals, SOLVATOR                                   
                                                                         
[Other institutions]                                                     
  V. Asgeirsson          : NEB                                           
  Christoph Bannwarth    : sTDA-DFT, sTD-DFT, PBEh-3c, B97-3c, D3        
  Giovanni Bistoni       : ETS/NOCV, ADLD/ADEX, COVALED                  
  Martin Brehm           : Molecular dynamics                            
  Ronald Cardenas        : ETS/NOCV                                      
  Martina Colucci        : COVALED                                       
  Sebastian Ehlert       : rSCAN, r2SCAN, r2SCAN-3c, D4, dhf basis sets  
  Marvin Friede          : D4 for Fr, Ra, Ac-Lr                          
  Lars Goerigk           : TD-DFT with DH, B97 family of functionals     
  Stefan Grimme          : VdW corrections, initial TS optimization, DFT functionals, gCP, sTDA/sTD-DF 
  Waldemar Hujo          : DFT-NL                                        
  H. Jonsson             : NEB                                           
  Holger Kruse           : gCP                                           
  Marcel Mueller         : wB97X-3c, vDZP basis set                      
  Hagen Neugebauer       : wr2SCAN, Native XTB                           
  Gianluca Regni         : ADLD/ADEX                                     
  Tobias Risthaus        : pre 6.0 range-separated hybrid DFT and stability analysis
  Lukas Wittmann         : regularized MP2, r2SCAN double-hybrids, wr2SCAN        
                                                                         
We gratefully acknowledge several colleagues who have allowed us to      
interface, adapt or use parts of their codes:                            
  Ed Valeev, F. Pavosevic, A. Kumar             : LibInt (2-el integral package), F12 methods 
  Garnet Chan, S. Sharma, J. Yang, R. Olivares  : DMRG                   
  Ulf Ekstrom                                   : XCFun DFT Library      
  Mihaly Kallay                                 : mrcc  (arbitrary order and MRCC methods)
  Frank Weinhold                                : gennbo (NPA and NBO analysis)           
  Simon Mueller                                 : openCOSMO-RS                            
  Christopher J. Cramer and Donald G. Truhlar   : smd solvation model                     
  S Lehtola, MJT Oliveira, MAL Marques          : LibXC Library                           
  Liviu Ungur et al                             : ANISO software                          


 Your calculation uses the libint2 library for the computation of 2-el integrals
 For citations please refer to: http://libint.valeyev.net

 Your ORCA version has been built with support for libXC version: 7.0.0
 For citations please refer to: https://libxc.gitlab.io

 This ORCA versions uses:
   CBLAS   interface :  Fast vector & matrix operations
   LAPACKE interface :  Fast linear algebra routines
   SCALAPACK package :  Parallel linear algebra routines
   Shared memory     :  Shared parallel matrices
   BLAS/LAPACK       :  OpenBLAS 0.3.29  USE64BITINT DYNAMIC_ARCH NO_AFFINITY Haswell SINGLE_THREADED
        Core in use  :  Haswell
   Copyright (c) 2011-2014, The OpenBLAS Project


  ***********************************
  * Starting time: Tue Jul 15 15:24:36 2025
  * Host name:     node306.cluster
  * Process ID:    966751
  * Working dir.:  /scratch/53030497/_e0ifd0
  ***********************************

NOTE: MaxCore=3840 MB was set to SCF,MP2,MDCI,CIPSI,MRCI,RASCI and CIS
      => If you want to overwrite this, your respective input block should be placed after the MaxCore statement
Your calculation utilizes the atom-pairwise dispersion correction
with the zero-damping scheme (D30)


XCFun DFT library Copyright 2009-2010 Ulf Ekstrom and contributors.
See http://admol.org/xcfun for more information.
This is free software; see the source code for copying conditions.
There is ABSOLUTELY NO WARRANTY; not even for MERCHANTABILITY or FITNESS FOR A PARTICULAR PURPOSE.
For details see the documentation.
Scientific users of this library should cite U. Ekstrom, L. Visscher, R. Bast, A. J. Thorvaldsen and K. Ruud;
J.Chem.Theor.Comp. 2010, DOI: 10.1021/ct100117s
XCFun Version 0.99 

Warning: RI is on but no J-basis has been assigned. Assigning Def2/J (nothing to worry about!)
================================================================================

----- Orbital basis set information -----
Your calculation utilizes the basis: 6-31G**
   H-He, Li-Ne : W. J. Hehre, R. Ditchfield and J.A. Pople, J. Chem. Phys. 56, 2257 (1972).
                 Note: He and Ne are unpublished basis sets taken from the Gaussian program.
                 Note: Li and B from J. D. Dill and J. A. Pople, J. Chem. Phys. 62, 2921 (1975).
   Na - Ar     : M. M. Francl, W. J. Pietro, W. J. Hehre, J. S. Binkley, M. S. Gordon, 
                 D. J. DeFrees and J. A. Pople, J. Chem. Phys. 77, 3654 (1982).
   K - Zn      : V. A. Rassolov, J. A. Pople, M. A. Ratner, and T. L. Windus, J. Chem. Phys. 109, 1223 (1998).

----- AuxJ basis set information -----
Your calculation utilizes the auxiliary basis: def2/J
   H-Rn: F. Weigend, Phys. Chem. Chem. Phys. 8, 1057 (2006).
   Fr-Lr: K. Eichkorn, F. Weigend, O. Treutler, R. Ahlrichs; Theor. Chem. Acc. 97, 119 (1997).

================================================================================
                                        WARNINGS
                       Please study these warnings very carefully!
================================================================================

WARNING: SinglePoint found together with IRC
         Switching on EnGrad - energy plus gradient calculation

================================================================================
                                       INPUT FILE
================================================================================
NAME = input.inp
|  1> # Automatically generated ORCA input
|  2> 
|  3> # Number of cores
|  4> %pal nprocs 8 end
|  5> # RAM per core
|  6> %maxcore 3840
|  7> 
|  8> ! wB97X-D3 
|  9> ! 6-31G** 
| 10> ! TightSCF 
| 11> ! Freq 
| 12> ! NoSym 
| 13> ! IRC 
| 14> 
| 15> %IRC
| 16>     MAXITER 100
| 17>     END
| 18> 
| 19> %geom
| 20>   Calc_Hess true
| 21> end
| 22> %Output
| 23>   JSONPropFile True
| 24> End
| 25> 
| 26> 
| 27> *xyz 0 1 
| 28> C        -2.05647800     -2.08167000      0.88774500
| 29> C        -0.71541700     -1.70909900      0.93465100
| 30> C        -0.28416500     -0.42133200      0.59501700
| 31> C        -1.26942000      0.52424300      0.22842000
| 32> C        -2.61511000      0.14482000      0.17402200
| 33> C        -3.00706900     -1.15097000      0.49263400
| 34> H        -2.34915900     -3.09576000      1.14202500
| 35> H         0.02192400     -2.45471600      1.21885300
| 36> H        -3.36878200      0.87022100     -0.11326600
| 37> H        -4.05730300     -1.42267800      0.44033700
| 38> B         1.26449900     -0.02546100      0.55323800
| 39> H         1.77671400     -1.14040800     -0.06933200
| 40> C         1.99846100      0.25456400      1.96532400
| 41> C         1.62154400     -0.15575600      3.22695000
| 42> C         2.29477100      0.51050600      4.28186900
| 43> H         0.87672200     -0.92962200      3.37196900
| 44> C         3.18117500      1.44485800      3.81583600
| 45> H         2.12659900      0.31592000      5.33381600
| 46> H         3.81494600      2.09867900      4.39929800
| 47> H         1.62131100      0.73752700     -0.30016300
| 48> B         2.59843600     -1.50111200      0.82101700
| 49> O         3.91458800     -1.36672900      0.48573300
| 50> O         2.30658900     -2.62545900      1.54984300
| 51> C         4.63313800     -2.30158900      1.32578900
| 52> C         3.53597100     -3.38385200      1.63830500
| 53> C         5.83074700     -2.82008000      0.54378100
| 54> H         6.53510700     -2.00356700      0.36766400
| 55> H         6.34785200     -3.60056500      1.11085300
| 56> H         5.53379600     -3.22754400     -0.42357200
| 57> C         5.10362000     -1.54318600      2.56675900
| 58> H         5.69862800     -0.68425300      2.24864800
| 59> H         4.26367600     -1.17124400      3.15862600
| 60> H         5.72435900     -2.18025300      3.20292000
| 61> C         3.62859600     -3.99703200      3.02758200
| 62> H         2.83537300     -4.73762700      3.15694000
| 63> H         4.59101500     -4.50097500      3.16018600
| 64> H         3.51801500     -3.23895800      3.80436100
| 65> C         3.44580100     -4.47859400      0.57559700
| 66> H         4.30831000     -5.14956000      0.61421600
| 67> H         2.54118900     -5.06516300      0.75235900
| 68> H         3.38026500     -4.04842400     -0.42732600
| 69> N        -0.86959100      1.84904700     -0.09622200
| 70> C        -1.72890400      2.59113700     -0.99317300
| 71> H        -2.65414400      2.96578200     -0.51790000
| 72> H        -1.18024500      3.46196100     -1.36638100
| 73> H        -2.00523900      1.96924900     -1.84792500
| 74> C        -0.45923500      2.66057700      1.03950500
| 75> H         0.13245900      3.51327900      0.69010500
| 76> H        -1.32568600      3.04760200      1.60515900
| 77> H         0.15635300      2.07849500      1.72498600
| 78> S         3.19524800      1.51043600      2.10425400
| 79> *
| 80> 
| 81> 
| 82>                          ****END OF INPUT****
================================================================================

                     *******************************
                     * Energy+Gradient Calculation *
                     *******************************

---------------------------------
CARTESIAN COORDINATES (ANGSTROEM)
---------------------------------
  C     -2.056478   -2.081670    0.887745
  C     -0.715417   -1.709099    0.934651
  C     -0.284165   -0.421332    0.595017
  C     -1.269420    0.524243    0.228420
  C     -2.615110    0.144820    0.174022
  C     -3.007069   -1.150970    0.492634
  H     -2.349159   -3.095760    1.142025
  H      0.021924   -2.454716    1.218853
  H     -3.368782    0.870221   -0.113266
  H     -4.057303   -1.422678    0.440337
  B      1.264499   -0.025461    0.553238
  H      1.776714   -1.140408   -0.069332
  C      1.998461    0.254564    1.965324
  C      1.621544   -0.155756    3.226950
  C      2.294771    0.510506    4.281869
  H      0.876722   -0.929622    3.371969
  C      3.181175    1.444858    3.815836
  H      2.126599    0.315920    5.333816
  H      3.814946    2.098679    4.399298
  H      1.621311    0.737527   -0.300163
  B      2.598436   -1.501112    0.821017
  O      3.914588   -1.366729    0.485733
  O      2.306589   -2.625459    1.549843
  C      4.633138   -2.301589    1.325789
  C      3.535971   -3.383852    1.638305
  C      5.830747   -2.820080    0.543781
  H      6.535107   -2.003567    0.367664
  H      6.347852   -3.600565    1.110853
  H      5.533796   -3.227544   -0.423572
  C      5.103620   -1.543186    2.566759
  H      5.698628   -0.684253    2.248648
  H      4.263676   -1.171244    3.158626
  H      5.724359   -2.180253    3.202920
  C      3.628596   -3.997032    3.027582
  H      2.835373   -4.737627    3.156940
  H      4.591015   -4.500975    3.160186
  H      3.518015   -3.238958    3.804361
  C      3.445801   -4.478594    0.575597
  H      4.308310   -5.149560    0.614216
  H      2.541189   -5.065163    0.752359
  H      3.380265   -4.048424   -0.427326
  N     -0.869591    1.849047   -0.096222
  C     -1.728904    2.591137   -0.993173
  H     -2.654144    2.965782   -0.517900
  H     -1.180245    3.461961   -1.366381
  H     -2.005239    1.969249   -1.847925
  C     -0.459235    2.660577    1.039505
  H      0.132459    3.513279    0.690105
  H     -1.325686    3.047602    1.605159
  H      0.156353    2.078495    1.724986
  S      3.195248    1.510436    2.104254

----------------------------
CARTESIAN COORDINATES (A.U.)
----------------------------
  NO LB      ZA    FRAG     MASS         X           Y           Z
   0 C     6.0000    0    12.011   -3.886180   -3.933786    1.677595
   1 C     6.0000    0    12.011   -1.351942   -3.229729    1.766234
   2 C     6.0000    0    12.011   -0.536994   -0.796202    1.124419
   3 C     6.0000    0    12.011   -2.398856    0.990676    0.431651
   4 C     6.0000    0    12.011   -4.941842    0.273670    0.328854
   5 C     6.0000    0    12.011   -5.682537   -2.175018    0.930943
   6 H     1.0000    0     1.008   -4.439267   -5.850139    2.158114
   7 H     1.0000    0     1.008    0.041430   -4.638741    2.303298
   8 H     1.0000    0     1.008   -6.366075    1.644479   -0.214042
   9 H     1.0000    0     1.008   -7.667192   -2.688472    0.832116
  10 B     5.0000    0    10.810    2.389557   -0.048114    1.045468
  11 H     1.0000    0     1.008    3.357503   -2.155059   -0.131018
  12 C     6.0000    0    12.011    3.776544    0.481056    3.713924
  13 C     6.0000    0    12.011    3.064274   -0.294336    6.098052
  14 C     6.0000    0    12.011    4.336489    0.964717    8.091560
  15 H     1.0000    0     1.008    1.656764   -1.756731    6.372098
  16 C     6.0000    0    12.011    6.011550    2.730386    7.210885
  17 H     1.0000    0     1.008    4.018690    0.597002   10.079451
  18 H     1.0000    0     1.008    7.209203    3.965929    8.313468
  19 H     1.0000    0     1.008    3.063834    1.393724   -0.567226
  20 B     5.0000    0    10.810    4.910332   -2.836691    1.551497
  21 O     8.0000    0    15.999    7.397499   -2.582744    0.917902
  22 O     8.0000    0    15.999    4.358822   -4.961398    2.928779
  23 C     6.0000    0    12.011    8.755362   -4.349373    2.505378
  24 C     6.0000    0    12.011    6.682017   -6.394554    3.095948
  25 C     6.0000    0    12.011   11.018515   -5.329179    1.027597
  26 H     1.0000    0     1.008   12.349562   -3.786193    0.694784
  27 H     1.0000    0     1.008   11.995702   -6.804082    2.099208
  28 H     1.0000    0     1.008   10.457359   -6.099174   -0.800435
  29 C     6.0000    0    12.011    9.644444   -2.916199    4.850472
  30 H     1.0000    0     1.008   10.768846   -1.293051    4.249329
  31 H     1.0000    0     1.008    8.057180   -2.213330    5.968938
  32 H     1.0000    0     1.008   10.817471   -4.120081    6.052642
  33 C     6.0000    0    12.011    6.857053   -7.553296    5.721301
  34 H     1.0000    0     1.008    5.358078   -8.952818    5.965752
  35 H     1.0000    0     1.008    8.675761   -8.505610    5.971886
  36 H     1.0000    0     1.008    6.648085   -6.120744    7.189200
  37 C     6.0000    0    12.011    6.511620   -8.463316    1.087721
  38 H     1.0000    0     1.008    8.141526   -9.731258    1.160700
  39 H     1.0000    0     1.008    4.802151   -9.571771    1.421752
  40 H     1.0000    0     1.008    6.387775   -7.650413   -0.807529
  41 N     7.0000    0    14.007   -1.643289    3.494192   -0.181833
  42 C     6.0000    0    12.011   -3.267155    4.896539   -1.876825
  43 H     1.0000    0     1.008   -5.015605    5.604516   -0.978689
  44 H     1.0000    0     1.008   -2.230340    6.542158   -2.582086
  45 H     1.0000    0     1.008   -3.789353    3.721341   -3.492072
  46 C     6.0000    0    12.011   -0.867828    5.027762    1.964380
  47 H     1.0000    0     1.008    0.250311    6.639135    1.304109
  48 H     1.0000    0     1.008   -2.505183    5.759133    3.033311
  49 H     1.0000    0     1.008    0.295464    3.927786    3.259751
  50 S    16.0000    0    32.060    6.038144    2.854310    3.976464

--------------------------------
INTERNAL COORDINATES (ANGSTROEM)
--------------------------------
 C      0   0   0     0.000000000000     0.00000000     0.00000000
 C      1   0   0     1.392642785713     0.00000000     0.00000000
 C      2   1   0     1.399883347908   122.31561606     0.00000000
 C      3   2   1     1.413942310018   117.60878364     1.65977092
 C      4   3   2     1.399214969700   119.92687257   357.97841464
 C      1   2   3     1.387781842222   119.32583745   359.95475167
 H      1   2   3     1.085679056748   120.10572110   178.91110503
 H      2   1   3     1.086456275132   118.60311442   181.72771193
 H      5   4   3     1.084786840503   119.81179025   180.36839564
 H      6   1   2     1.086071668091   120.55075643   179.44742242
 B      3   2   1     1.599005790602   122.17102215   184.28532644
 H     11   3   2     1.375886777295    99.89025358    42.74023342
 C     11   3   2     1.615890184841   117.38617328   282.10340051
 C     13  11   3     1.379176961512   128.58699571    20.72678895
 C     14  13  11     1.417742481106   114.27237167   194.14002748
 H     14  13  11     1.083816824007   121.50946889    14.58790767
 C     15  14  13     1.369639539517   112.00756243     0.62376058
 H     15  14  13     1.082930294982   124.37524785   180.07451214
 H     17  15  14     1.081469133136   127.45380264   179.35216074
 H     11   3   2     1.199065785639   117.66737400   143.47873283
 B     12  11   3     1.264142303185    98.88897179   238.12483783
 O     21  12  11     1.364818756630   115.19673667   248.71025111
 O     21  12  11     1.371319870086   118.02993185   108.17842265
 C     22  21  12     1.447747010094   105.81303442   203.31140736
 C     23  21  12     1.447192305748   106.34145211   136.31632809
 C     24  22  21     1.521393028125   108.21044611   147.01740672
 H     26  24  22     1.092626965830   109.61068183    66.20588613
 H     26  24  22     1.094588995666   110.40118038   185.26270293
 H     26  24  22     1.090861418470   111.64318366   306.38132161
 C     24  22  21     1.528572851922   107.66541659   266.02603375
 H     30  24  22     1.092243117110   108.74728199   303.95370784
 H     30  24  22     1.092773224502   111.83938241    63.11961576
 H     30  24  22     1.093559365801   110.97456508   184.60453604
 C     25  23  21     1.521400567160   108.58708362   141.63299000
 H     34  25  23     1.092893944497   109.69493582    66.09381769
 H     34  25  23     1.094437161113   110.47256558   185.25248853
 H     34  25  23     1.091004107177   111.34219466   306.30470750
 C     25  23  21     1.528377888066   106.42384933   260.57466556
 H     38  25  23     1.093438875931   111.61903712   183.91361692
 H     38  25  23     1.092534149100   108.71822248   303.61010082
 H     38  25  23     1.093250081237   111.07354318    62.38604452
 N      4   3   2     1.421394138099   119.11170993   178.73392043
 C     42   4   3     1.446940737028   116.90697334   153.52057663
 H     43  42   4     1.105582361543   113.84847707    75.75270733
 H     43  42   4     1.094826629435   108.76150370   195.25201398
 H     43  42   4     1.092568852875   110.07478107   313.66749757
 C     42   4   3     1.454939451031   114.89284719   286.92335641
 H     47  42   4     1.095117733598   109.73328829   161.23869652
 H     47  42   4     1.104757952559   111.95508067   281.54748206
 H     47  42   4     1.089794586988   110.63388300    41.99361735
 S     17  15  14     1.712895637842   111.80404113   359.95673913

---------------------------
INTERNAL COORDINATES (A.U.)
---------------------------
 C      0   0   0     0.000000000000     0.00000000     0.00000000
 C      1   0   0     2.631713467378     0.00000000     0.00000000
 C      2   1   0     2.645396146982   122.31561606     0.00000000
 C      3   2   1     2.671963735098   117.60878364     1.65977092
 C      4   3   2     2.644133095216   119.92687257   357.97841464
 C      1   2   3     2.622527615429   119.32583745   359.95475167
 H      1   2   3     2.051636086587   120.10572110   178.91110503
 H      2   1   3     2.053104816480   118.60311442   181.72771193
 H      5   4   3     2.049950042233   119.81179025   180.36839564
 H      6   1   2     2.052378014502   120.55075643   179.44742242
 B      3   2   1     3.021683030792   122.17102215   184.28532644
 H     11   3   2     2.600049200370    99.89025358    42.74023342
 C     11   3   2     3.053589911841   117.38617328   282.10340051
 C     13  11   3     2.606266747471   128.58699571    20.72678895
 C     14  13  11     2.679145017717   114.27237167   194.14002748
 H     14  13  11     2.048116976710   121.50946889    14.58790767
 C     15  14  13     2.588243631878   112.00756243     0.62376058
 H     15  14  13     2.046441679642   124.37524785   180.07451214
 H     17  15  14     2.043680483916   127.45380264   179.35216074
 H     11   3   2     2.265905951412   117.66737400   143.47873283
 B     12  11   3     2.388882747323    98.88897179   238.12483783
 O     21  12  11     2.579133672470   115.19673667   248.71025111
 O     21  12  11     2.591418996468   118.02993185   108.17842265
 C     22  21  12     2.735845360281   105.81303442   203.31140736
 C     23  21  12     2.734797120982   106.34145211   136.31632809
 C     24  22  21     2.875016165213   108.21044611   147.01740672
 H     26  24  22     2.064765731955   109.61068183    66.20588613
 H     26  24  22     2.068473431013   110.40118038   185.26270293
 H     26  24  22     2.061429330969   111.64318366   306.38132161
 C     24  22  21     2.888584065880   107.66541659   266.02603375
 H     30  24  22     2.064040362998   108.74728199   303.95370784
 H     30  24  22     2.065042120791   111.83938241    63.11961576
 H     30  24  22     2.066527712548   110.97456508   184.60453604
 C     25  23  21     2.875030411924   108.58708362   141.63299000
 H     34  25  23     2.065270248520   109.69493582    66.09381769
 H     34  25  23     2.068186505291   110.47256558   185.25248853
 H     34  25  23     2.061698973549   111.34219466   306.30470750
 C     25  23  21     2.888215637585   106.42384933   260.57466556
 H     38  25  23     2.066300019693   111.61903712   183.91361692
 H     38  25  23     2.064590333755   108.71822248   303.61010082
 H     38  25  23     2.065943249425   111.07354318    62.38604452
 N      4   3   2     2.686045649367   119.11170993   178.73392043
 C     42   4   3     2.734321724996   116.90697334   153.52057663
 H     43  42   4     2.089247881809   113.84847707    75.75270733
 H     43  42   4     2.068922493757   108.76150370   195.25201398
 H     43  42   4     2.064655914387   110.07478107   313.66749757
 C     42   4   3     2.749437103885   114.89284719   286.92335641
 H     47  42   4     2.069472600900   109.73328829   161.23869652
 H     47  42   4     2.087689974608   111.95508067   281.54748206
 H     47  42   4     2.059413311638   110.63388300    41.99361735
 S     17  15  14     3.236903651509   111.80404113   359.95673913

---------------------
BASIS SET INFORMATION
---------------------
There are 6 groups of distinct atoms

 Group   1 Type C   : 10s4p1d contracted to 3s2p1d pattern {631/31/1}
 Group   2 Type H   : 4s1p contracted to 2s1p pattern {31/1}
 Group   3 Type B   : 10s4p1d contracted to 3s2p1d pattern {631/31/1}
 Group   4 Type O   : 10s4p1d contracted to 3s2p1d pattern {631/31/1}
 Group   5 Type N   : 10s4p1d contracted to 3s2p1d pattern {631/31/1}
 Group   6 Type S   : 16s10p1d contracted to 4s3p1d pattern {6631/631/1}

Atom   0C    basis set group =>   1
Atom   1C    basis set group =>   1
Atom   2C    basis set group =>   1
Atom   3C    basis set group =>   1
Atom   4C    basis set group =>   1
Atom   5C    basis set group =>   1
Atom   6H    basis set group =>   2
Atom   7H    basis set group =>   2
Atom   8H    basis set group =>   2
Atom   9H    basis set group =>   2
Atom  10B    basis set group =>   3
Atom  11H    basis set group =>   2
Atom  12C    basis set group =>   1
Atom  13C    basis set group =>   1
Atom  14C    basis set group =>   1
Atom  15H    basis set group =>   2
Atom  16C    basis set group =>   1
Atom  17H    basis set group =>   2
Atom  18H    basis set group =>   2
Atom  19H    basis set group =>   2
Atom  20B    basis set group =>   3
Atom  21O    basis set group =>   4
Atom  22O    basis set group =>   4
Atom  23C    basis set group =>   1
Atom  24C    basis set group =>   1
Atom  25C    basis set group =>   1
Atom  26H    basis set group =>   2
Atom  27H    basis set group =>   2
Atom  28H    basis set group =>   2
Atom  29C    basis set group =>   1
Atom  30H    basis set group =>   2
Atom  31H    basis set group =>   2
Atom  32H    basis set group =>   2
Atom  33C    basis set group =>   1
Atom  34H    basis set group =>   2
Atom  35H    basis set group =>   2
Atom  36H    basis set group =>   2
Atom  37C    basis set group =>   1
Atom  38H    basis set group =>   2
Atom  39H    basis set group =>   2
Atom  40H    basis set group =>   2
Atom  41N    basis set group =>   5
Atom  42C    basis set group =>   1
Atom  43H    basis set group =>   2
Atom  44H    basis set group =>   2
Atom  45H    basis set group =>   2
Atom  46C    basis set group =>   1
Atom  47H    basis set group =>   2
Atom  48H    basis set group =>   2
Atom  49H    basis set group =>   2
Atom  50S    basis set group =>   6
---------------------------------
AUXILIARY/J BASIS SET INFORMATION
---------------------------------
There are 6 groups of distinct atoms

 Group   1 Type C   : 12s5p4d2f1g contracted to 6s4p3d1f1g pattern {711111/2111/211/2/1}
 Group   2 Type H   : 5s2p1d contracted to 3s1p1d pattern {311/2/1}
 Group   3 Type B   : 12s5p4d2f1g contracted to 6s4p3d1f1g pattern {711111/2111/211/2/1}
 Group   4 Type O   : 12s5p4d2f1g contracted to 6s4p3d1f1g pattern {711111/2111/211/2/1}
 Group   5 Type N   : 12s5p4d2f1g contracted to 6s4p3d1f1g pattern {711111/2111/211/2/1}
 Group   6 Type S   : 14s5p5d2f1g contracted to 8s4p3d1f1g pattern {71111111/2111/311/2/1}

Atom   0C    basis set group =>   1
Atom   1C    basis set group =>   1
Atom   2C    basis set group =>   1
Atom   3C    basis set group =>   1
Atom   4C    basis set group =>   1
Atom   5C    basis set group =>   1
Atom   6H    basis set group =>   2
Atom   7H    basis set group =>   2
Atom   8H    basis set group =>   2
Atom   9H    basis set group =>   2
Atom  10B    basis set group =>   3
Atom  11H    basis set group =>   2
Atom  12C    basis set group =>   1
Atom  13C    basis set group =>   1
Atom  14C    basis set group =>   1
Atom  15H    basis set group =>   2
Atom  16C    basis set group =>   1
Atom  17H    basis set group =>   2
Atom  18H    basis set group =>   2
Atom  19H    basis set group =>   2
Atom  20B    basis set group =>   3
Atom  21O    basis set group =>   4
Atom  22O    basis set group =>   4
Atom  23C    basis set group =>   1
Atom  24C    basis set group =>   1
Atom  25C    basis set group =>   1
Atom  26H    basis set group =>   2
Atom  27H    basis set group =>   2
Atom  28H    basis set group =>   2
Atom  29C    basis set group =>   1
Atom  30H    basis set group =>   2
Atom  31H    basis set group =>   2
Atom  32H    basis set group =>   2
Atom  33C    basis set group =>   1
Atom  34H    basis set group =>   2
Atom  35H    basis set group =>   2
Atom  36H    basis set group =>   2
Atom  37C    basis set group =>   1
Atom  38H    basis set group =>   2
Atom  39H    basis set group =>   2
Atom  40H    basis set group =>   2
Atom  41N    basis set group =>   5
Atom  42C    basis set group =>   1
Atom  43H    basis set group =>   2
Atom  44H    basis set group =>   2
Atom  45H    basis set group =>   2
Atom  46C    basis set group =>   1
Atom  47H    basis set group =>   2
Atom  48H    basis set group =>   2
Atom  49H    basis set group =>   2
Atom  50S    basis set group =>   6


           ************************************************************
           *        Program running with 8 parallel MPI-processes     *
           *              working on a common directory               *
           ************************************************************
------------------------------------------------------------------------------
                             ORCA STARTUP CALCULATIONS
                           -- RI-GTO INTEGRALS CHOSEN --
------------------------------------------------------------------------------
------------------------------------------------------------------------------
                   ___                                                        
                  /   \      - P O W E R E D   B Y -                         
                 /     \                                                     
                 |  |  |   _    _      __       _____    __    __             
                 |  |  |  | |  | |    /  \     |  _  \  |  |  /  |          
                  \  \/   | |  | |   /    \    | | | |  |  | /  /          
                 / \  \   | |__| |  /  /\  \   | |_| |  |  |/  /          
                |  |  |   |  __  | /  /__\  \  |    /   |      \           
                |  |  |   | |  | | |   __   |  |    \   |  |\   \          
                \     /   | |  | | |  |  |  |  | |\  \  |  | \   \       
                 \___/    |_|  |_| |__|  |__|  |_| \__\ |__|  \__/        
                                                                              
                      - O R C A' S   B I G   F R I E N D -                    
                                      &                                       
                       - I N T E G R A L  F E E D E R -                       
                                                                              
 v1 FN, 2020, v2 2021, v3 2022-2024                                           
------------------------------------------------------------------------------


----------------------
SHARK INTEGRAL PACKAGE
----------------------

Number of atoms                             ...     51
Number of basis functions                   ...    475
Number of shells                            ...    227
Maximum angular momentum                    ...      2
Integral batch strategy                     ... SHARK/LIBINT Hybrid
RI-J (if used) integral strategy            ... SPLIT-RIJ (Revised 2003 algorithm where possible)
Printlevel                                  ...      1
Contraction scheme used                     ... SEGMENTED contraction
Prescreening option                         ... SCHWARTZ
   Thresh                                   ... 2.500e-11
   Tcut                                     ... 2.500e-12
   Tpresel                                  ... 2.500e-12 
Coulomb Range Separation                    ... NOT USED
Exchange Range Separation                   ... Long Range
   Mu parameter                             ... 2.500e-01
   Scaling (regular/separated)              ... 1.957e-01 8.043e-01
Robust (split-)RI terms used:
  metric    (central integrals)             ... YES
  density   (r.h.s.  integrals)             ... YES
  potential (l.h.s.  integrals)             ... YES
Multipole approximations                    ... NOT USED
Finite Nucleus Model                        ... NOT USED
CABS basis                                  ... NOT available
Auxiliary Coulomb fitting basis             ... AVAILABLE
   # of basis functions in Aux-J            ...   1475
   # of shells in Aux-J                     ...    497
   Maximum angular momentum in Aux-J        ...      4
Auxiliary J/K fitting basis                 ... NOT available
Auxiliary Correlation fitting basis         ... NOT available
Auxiliary 'external' fitting basis          ... NOT available

Checking pre-screening integrals            ... done (  0.0 sec) Dimension = 227
   => SHARK Basis and OBASIS are compatible. Storing Pre-screening
Shell pair information
Shell pair cut-off parameter TPreSel        ...   2.5e-12
Total number of shell pairs                 ...     25878
Shell pairs after pre-screening             ...     17522
Total number of primitive shell pairs       ...    129393
Primitive shell pairs kept                  ...     49784
          la=0 lb=0:   5529 shell pairs
          la=1 lb=0:   6617 shell pairs
          la=1 lb=1:   2031 shell pairs
          la=2 lb=0:   1970 shell pairs
          la=2 lb=1:   1190 shell pairs
          la=2 lb=2:    185 shell pairs

Checking whether 4 symmetric matrices of dimension 475 fit in memory
:Max Core in MB      =   3840.00
 MB in use           =     26.33
 MB left             =   3813.67
 MB needed           =      3.45
 Data fit in memory  = YES
Calculating RI/J V-Matrix + Cholesky decomp.... done (  0.1 sec)
Calculating Nuclear repulsion               ... done (  0.0 sec) ENN=   2312.645022428391 Eh

Diagonalization of the overlap matrix:
Smallest eigenvalue                        ... 4.166e-04
Time for diagonalization                   ...    0.052 sec
Threshold for overlap eigenvalues          ... 1.000e-07
Number of eigenvalues below threshold      ... 0
Time for construction of square roots      ...    0.020 sec
Total time needed                          ...    0.074 sec

-------------------
DFT GRID GENERATION
-------------------

General Integration Accuracy     IntAcc      ... 4.388
Radial Grid Type                 RadialGrid  ... OptM3 with GC (2021)
Angular Grid (max. ang.)         AngularGrid ... 4 (Lebedev-302)
Angular grid pruning method      GridPruning ... 4 (adaptive)
Weight generation scheme         WeightScheme... mBecke (2022)
Basis function cutoff            BFCut       ... 1.0000e-11
Integration weight cutoff        WCut        ... 1.0000e-14
Partially contracted basis set               ... off
Rotationally invariant grid construction     ... off
Angular grids for H and He will be reduced by one unit

Total number of grid points                  ...   228654
Total number of batches                      ...     3599
Average number of points per batch           ...       63
Average number of grid points per atom       ...     4483

--------------------
COSX GRID GENERATION
--------------------

GRIDX 1
-------
General Integration Accuracy     IntAcc      ... 3.816
Radial Grid Type                 RadialGrid  ... OptM3 with GC (2021)
Angular Grid (max. ang.)         AngularGrid ... 1 (Lebedev-50)
Angular grid pruning method      GridPruning ... 4 (adaptive)
Weight generation scheme         WeightScheme... mBecke (2022)
Basis function cutoff            BFCut       ... 1.0000e-11
Integration weight cutoff        WCut        ... 1.0000e-14
Partially contracted basis set               ... on
Rotationally invariant grid construction     ... off
Angular grids for H and He will be reduced by one unit

Total number of grid points                  ...    30037
Total number of batches                      ...      260
Average number of points per batch           ...      115
Average number of grid points per atom       ...      589
UseSFitting                                  ... on

GRIDX 2
-------
General Integration Accuracy     IntAcc      ... 4.020
Radial Grid Type                 RadialGrid  ... OptM3 with GC (2021)
Angular Grid (max. ang.)         AngularGrid ... 2 (Lebedev-110)
Angular grid pruning method      GridPruning ... 4 (adaptive)
Weight generation scheme         WeightScheme... mBecke (2022)
Basis function cutoff            BFCut       ... 1.0000e-11
Integration weight cutoff        WCut        ... 1.0000e-14
Partially contracted basis set               ... on
Rotationally invariant grid construction     ... off
Angular grids for H and He will be reduced by one unit

Total number of grid points                  ...    61096
Total number of batches                      ...      505
Average number of points per batch           ...      120
Average number of grid points per atom       ...     1198
UseSFitting                                  ... on

GRIDX 3
-------
General Integration Accuracy     IntAcc      ... 4.338
Radial Grid Type                 RadialGrid  ... OptM3 with GC (2021)
Angular Grid (max. ang.)         AngularGrid ... 3 (Lebedev-194)
Angular grid pruning method      GridPruning ... 4 (adaptive)
Weight generation scheme         WeightScheme... mBecke (2022)
Basis function cutoff            BFCut       ... 1.0000e-11
Integration weight cutoff        WCut        ... 1.0000e-14
Partially contracted basis set               ... on
Rotationally invariant grid construction     ... off
Angular grids for H and He will be reduced by one unit

Total number of grid points                  ...   133367
Total number of batches                      ...     1070
Average number of points per batch           ...      124
Average number of grid points per atom       ...     2615
UseSFitting                                  ... on
Grids setup in   4.5 sec
Initializing property integral containers    ... done (  0.0 sec)

SHARK setup successfully completed in   5.0 seconds

Maximum memory used throughout the entire STARTUP-calculation: 69.1 MB


           ************************************************************
           *        Program running with 8 parallel MPI-processes     *
           *              working on a common directory               *
           ************************************************************
-------------------------------------------------------------------------------
                                 ORCA GUESS
                   Start orbitals & Density for SCF / CASSCF
-------------------------------------------------------------------------------

------------
SCF SETTINGS
------------
Hamiltonian:
 Density Functional     Method          .... DFT(GTOs)
 Exchange Functional    Exchange        .... WB97X-D3
 Correlation Functional Correlation     .... WB97X-D3
 Gradients option       PostSCFGGA      .... off
 Hybrid DFT is turned on
   Fraction HF Exchange ScalHFX         ....  0.195728
   Scaling of DF-GGA-X  ScalDFX         ....  0.000000
   Scaling of DF-GGA-C  ScalDFC         ....  1.000000
   Scaling of DF-LDA-C  ScalLDAC        ....  1.000000
   Perturbative correction              ....  0.000000
 Long-range corrected/Screened/Range-Separated Hybrid DFT is turned on
   Amount of maximum screened exact exchange              ....  0.804272
   Range separation parameter mu (erf(mu*r12)/r12)        ....  0.250000
 RI-approximation to the Coulomb term is turned on
   Number of AuxJ basis functions       .... 1475
   RIJ-COSX (HFX calculated with COS-X)).... on


General Settings:
 Integral files         IntName         .... input
 Hartree-Fock type      HFTyp           .... RHF
 Total Charge           Charge          ....    0
 Multiplicity           Mult            ....    1
 Number of Electrons    NEL             ....  184
 Basis Dimension        Dim             ....  475
 Nuclear Repulsion      ENuc            ....   2312.6450224284 Eh

Convergence Acceleration:
 AO-DIIS                CNVDIIS         .... on
   Start iteration      DIISMaxIt       ....    12
   Startup error        DIISStart       ....  0.200000
   # of expansion vecs  DIISMaxEq       ....     5
   Bias factor          DIISBfac        ....   1.050
   Max. coefficient     DIISMaxC        ....  10.000
 MO-DIIS                CNVKDIIS        .... off
 Trust-Rad. Augm. Hess. CNVTRAH         .... auto
   Auto Start mean grad. ratio tolernc. ....  1.125000
   Auto Start start iteration           ....    50
   Auto Start num. interpolation iter.  ....    10
   Max. Number of Micro iterations      ....    24
   Max. Number of Macro iterations      .... Maxiter - #DIIS iter
   Number of Davidson start vectors     ....     2
   Converg. threshold    (grad. norm)   ....   1.000e-05
   Grad. Scal. Fac. for Micro threshold ....   0.100
   Minimum threshold for Micro iter.    ....   1.000e-02
   NR start threshold (gradient norm)   ....   1.000e-04
   Initial trust radius                 ....   0.400
   Minimum AH scaling param. (alpha)    ....   1.000
   Maximum AH scaling param. (alpha)    .... 1000.000
   Quad. conv. algorithm                .... NR
   White noise on init. David. guess    .... on
   Maximum white noise                  ....   0.010
   Pseudo random numbers                .... off
   Inactive MOs                         .... canonical
   Orbital update algorithm             .... Taylor
   Preconditioner                       .... Diag
   Full preconditioner red. dimension   ....   250
 SOSCF                 CNVSOSCF           .... on
   Start iteration     SOSCFMaxIt         ....   150
   Startup grad/error  SOSCFStart         ....  0.003300
   Hessian update      SOSCFHessUp        .... L-BFGS
   Autom. constraints  SOSCFAutoConstrain .... off
 Level Shifting         CNVShift        .... on
   Level shift para.    LevelShift      ....    0.2500
   Turn off err/grad.   ShiftErr        ....    0.0010
 Zerner damping         CNVZerner       .... off
 Static damping         CNVDamp         .... on
   Fraction old density DampFac         ....    0.7000
   Max. Damping (<1)    DampMax         ....    0.9800
   Min. Damping (>=0)   DampMin         ....    0.0000
   Turn off err/grad.   DampErr         ....    0.1000

SCF Procedure:
 Maximum # iterations   MaxIter         ....   125
 SCF integral mode      SCFMode         .... Direct
   Integral package                     .... SHARK and LIBINT hybrid scheme
 Reset frequency        DirectResetFreq ....    20
 Integral Threshold     Thresh          ....  2.500e-11 Eh
 Primitive CutOff       TCut            ....  2.500e-12 Eh

Convergence Tolerance:
 Convergence Check Mode ConvCheckMode   .... Total+1el-Energy
 Convergence forced     ConvForced      .... 0
 Energy Change          TolE            ....  1.000e-08 Eh
 1-El. energy change                    ....  1.000e-05 Eh
 Orbital Gradient       TolG            ....  1.000e-05
 Orbital Rotation angle TolX            ....  1.000e-05
 DIIS Error             TolErr          ....  5.000e-07

------------------------------
INITIAL GUESS: MODEL POTENTIAL
------------------------------
Loading Hartree-Fock densities                     ... done
Calculating cut-offs                               ... done
Initializing the effective Hamiltonian             ... done
Setting up the integral package (SHARK)            ... done
Starting the Coulomb interaction                   ... done (   0.5 sec)
Making the grid                                    ... done (   0.6 sec)
Mapping shells                                     ... done
Starting the XC term evaluation                    ... done (   0.2 sec)
  promolecular density results
     # of electrons  =    183.993188659
     EX              =   -155.509270325
     EC              =     -6.232894661
     EX+EC           =   -161.742164986
Transforming the Hamiltonian                       ... done (   0.0 sec)
Diagonalizing the Hamiltonian                      ... done (   0.1 sec)
Back transforming the eigenvectors                 ... done (   0.0 sec)
Now organizing SCF variables                       ... done
                      ------------------
                      INITIAL GUESS DONE (   1.5 sec)
                      ------------------
             **** ENERGY FILE WAS UPDATED (input.en.tmp) ****
Finished Guess after   1.8 sec
Maximum memory used throughout the entire GUESS-calculation: 33.2 MB


           ************************************************************
           *        Program running with 8 parallel MPI-processes     *
           *              working on a common directory               *
           ************************************************************

-------------------------------------------------------------------------------------------
                                      ORCA LEAN-SCF
                              memory conserving SCF solver
-------------------------------------------------------------------------------------------

----------------------------------------D-I-I-S--------------------------------------------
Iteration    Energy (Eh)           Delta-E    RMSDP     MaxDP     DIISErr   Damp  Time(sec)
-------------------------------------------------------------------------------------------
               ***  Starting incremental Fock matrix formation  ***
    1    -1354.4526741853719614     0.00e+00  4.09e-03  5.85e-02  1.82e-01  0.700  18.3
    2    -1354.7027476581592964    -2.50e-01  3.10e-03  3.95e-02  9.65e-02  0.700   8.5
                               ***Turning on AO-DIIS***
    3    -1354.8313465379233094    -1.29e-01  1.57e-03  2.27e-02  5.09e-02  0.700   8.3
    4    -1354.9077653198974076    -7.64e-02  3.38e-03  6.42e-02  3.15e-02  0.000   7.8
    5    -1355.0709174027588233    -1.63e-01  3.48e-04  5.72e-03  4.12e-03  0.000   8.3
                              *** Initializing SOSCF ***
---------------------------------------S-O-S-C-F--------------------------------------
Iteration    Energy (Eh)           Delta-E    RMSDP     MaxDP     MaxGrad    Time(sec)
--------------------------------------------------------------------------------------
    6    -1355.0714429706258670    -5.26e-04  1.86e-04  3.68e-03  2.43e-03     7.3
               *** Restarting incremental Fock matrix formation ***
    7    -1355.0716971542956344    -2.54e-04  1.49e-04  2.52e-03  1.99e-03    18.3
    8    -1355.0717734687668781    -7.63e-05  1.91e-04  3.64e-03  8.00e-04    12.0
    9    -1355.0717913198113820    -1.79e-05  5.97e-05  8.35e-04  2.85e-04    12.2
   10    -1355.0718003441570545    -9.02e-06  1.28e-05  2.15e-04  6.74e-05    11.0
   11    -1355.0718005502362757    -2.06e-07  4.79e-06  1.02e-04  3.99e-05     9.0
   12    -1355.0718006459210301    -9.57e-08  1.97e-06  3.43e-05  1.20e-05     7.3
   13    -1355.0718006400315971     5.89e-09  7.33e-07  1.04e-05  3.24e-06     6.2
                 **** Energy Check signals convergence ****

               *****************************************************
               *                     SUCCESS                       *
               *           SCF CONVERGED AFTER  13 CYCLES          *
               *****************************************************

Recomputing exchange energy using gridx3       ... done (   34.260 sec)
Old exchange energy                            :    -50.836350821 Eh
New exchange energy                            :    -50.836340068 Eh
Exchange energy change after final integration :      0.000010753 Eh
Total energy after final integration           :  -1355.071789887 Eh
             **** ENERGY FILE WAS UPDATED (input.en.tmp) ****

----------------
TOTAL SCF ENERGY
----------------

Total Energy       :      -1355.07178988656597 Eh          -36873.37801 eV

Components:
Nuclear Repulsion  :       2312.64502242839080 Eh           62930.27037 eV
Electronic Energy  :      -3667.71682306772436 Eh          -99803.64868 eV
One Electron Energy:      -6447.76651331380526 Eh         -175452.64667 eV
Two Electron Energy:       2780.04969024608090 Eh           75648.99799 eV

Virial components:
Potential Energy   :      -2702.83570741659560 Eh          -73547.89870 eV
Kinetic Energy     :       1347.76391753002963 Eh           36674.52069 eV
Virial Ratio       :          2.00542221991662

DFT components:
N(Alpha)           :       92.000069430658 electrons
N(Beta)            :       92.000069430658 electrons
N(Total)           :      184.000138861315 electrons
E(XC)              :     -114.939460384923 Eh       

---------------
SCF CONVERGENCE
---------------

  Last Energy change         ...   -5.8894e-09  Tolerance :   1.0000e-08
  Last MAX-Density change    ...    1.0362e-05  Tolerance :   1.0000e-07
  Last RMS-Density change    ...    7.3317e-07  Tolerance :   5.0000e-09
  Last DIIS Error            ...    2.4341e-03  Tolerance :   5.0000e-07
  Last Orbital Gradient      ...    3.2414e-06  Tolerance :   1.0000e-05
  Last Orbital Rotation      ...    7.3818e-06  Tolerance :   1.0000e-05


----------------
ORBITAL ENERGIES
----------------

  NO   OCC          E(Eh)            E(eV) 
   0   2.0000     -88.978774     -2421.2355 
   1   2.0000     -19.258022      -524.0374 
   2   2.0000     -19.257866      -524.0332 
   3   2.0000     -14.419248      -392.3677 
   4   2.0000     -10.358558      -281.8707 
   5   2.0000     -10.357162      -281.8327 
   6   2.0000     -10.321332      -280.8577 
   7   2.0000     -10.303898      -280.3833 
   8   2.0000     -10.301659      -280.3224 
   9   2.0000     -10.296493      -280.1818 
  10   2.0000     -10.294795      -280.1356 
  11   2.0000     -10.292356      -280.0693 
  12   2.0000     -10.288985      -279.9775 
  13   2.0000     -10.284684      -279.8605 
  14   2.0000     -10.283415      -279.8260 
  15   2.0000     -10.282303      -279.7957 
  16   2.0000     -10.277219      -279.6573 
  17   2.0000     -10.271254      -279.4950 
  18   2.0000     -10.266081      -279.3543 
  19   2.0000     -10.265943      -279.3505 
  20   2.0000     -10.265261      -279.3320 
  21   2.0000     -10.254585      -279.0415 
  22   2.0000      -8.074428      -219.7164 
  23   2.0000      -6.918437      -188.2602 
  24   2.0000      -6.826897      -185.7693 
  25   2.0000      -6.028364      -164.0401 
  26   2.0000      -6.023903      -163.9187 
  27   2.0000      -6.021805      -163.8617 
  28   2.0000      -1.189034       -32.3553 
  29   2.0000      -1.118410       -30.4335 
  30   2.0000      -1.036700       -28.2100 
  31   2.0000      -0.999135       -27.1878 
  32   2.0000      -0.941747       -25.6262 
  33   2.0000      -0.932247       -25.3677 
  34   2.0000      -0.874046       -23.7840 
  35   2.0000      -0.852303       -23.1924 
  36   2.0000      -0.847610       -23.0646 
  37   2.0000      -0.837122       -22.7793 
  38   2.0000      -0.834232       -22.7006 
  39   2.0000      -0.827922       -22.5289 
  40   2.0000      -0.807311       -21.9681 
  41   2.0000      -0.797996       -21.7146 
  42   2.0000      -0.751400       -20.4466 
  43   2.0000      -0.740082       -20.1387 
  44   2.0000      -0.713699       -19.4207 
  45   2.0000      -0.685385       -18.6503 
  46   2.0000      -0.672680       -18.3046 
  47   2.0000      -0.661025       -17.9874 
  48   2.0000      -0.659365       -17.9422 
  49   2.0000      -0.648659       -17.6509 
  50   2.0000      -0.628171       -17.0934 
  51   2.0000      -0.604940       -16.4613 
  52   2.0000      -0.597495       -16.2587 
  53   2.0000      -0.577597       -15.7172 
  54   2.0000      -0.572658       -15.5828 
  55   2.0000      -0.558241       -15.1905 
  56   2.0000      -0.554646       -15.0927 
  57   2.0000      -0.549592       -14.9552 
  58   2.0000      -0.547364       -14.8945 
  59   2.0000      -0.543592       -14.7919 
  60   2.0000      -0.524679       -14.2772 
  61   2.0000      -0.509558       -13.8658 
  62   2.0000      -0.507369       -13.8062 
  63   2.0000      -0.504064       -13.7163 
  64   2.0000      -0.502480       -13.6732 
  65   2.0000      -0.501334       -13.6420 
  66   2.0000      -0.497254       -13.5310 
  67   2.0000      -0.487855       -13.2752 
  68   2.0000      -0.481421       -13.1001 
  69   2.0000      -0.478403       -13.0180 
  70   2.0000      -0.475717       -12.9449 
  71   2.0000      -0.470545       -12.8042 
  72   2.0000      -0.469164       -12.7666 
  73   2.0000      -0.467609       -12.7243 
  74   2.0000      -0.461043       -12.5456 
  75   2.0000      -0.459136       -12.4937 
  76   2.0000      -0.451656       -12.2902 
  77   2.0000      -0.445224       -12.1152 
  78   2.0000      -0.440378       -11.9833 
  79   2.0000      -0.438465       -11.9312 
  80   2.0000      -0.430175       -11.7056 
  81   2.0000      -0.429275       -11.6812 
  82   2.0000      -0.413182       -11.2433 
  83   2.0000      -0.408214       -11.1081 
  84   2.0000      -0.402754       -10.9595 
  85   2.0000      -0.385020       -10.4769 
  86   2.0000      -0.371320       -10.1041 
  87   2.0000      -0.335054        -9.1173 
  88   2.0000      -0.332514        -9.0482 
  89   2.0000      -0.317917        -8.6510 
  90   2.0000      -0.307760        -8.3746 
  91   2.0000      -0.267855        -7.2887 
  92   0.0000       0.028127         0.7654 
  93   0.0000       0.089193         2.4271 
  94   0.0000       0.099614         2.7106 
  95   0.0000       0.123851         3.3702 
  96   0.0000       0.126093         3.4312 
  97   0.0000       0.152375         4.1463 
  98   0.0000       0.166230         4.5234 
  99   0.0000       0.172610         4.6970 
 100   0.0000       0.189862         5.1664 
 101   0.0000       0.194810         5.3010 
 102   0.0000       0.202581         5.5125 
*Only the first 10 virtual orbitals were printed.

                    ********************************
                    * MULLIKEN POPULATION ANALYSIS *
                    ********************************

-----------------------
MULLIKEN ATOMIC CHARGES
-----------------------
   0 C :   -0.115536
   1 C :   -0.184799
   2 C :    0.023581
   3 C :    0.164408
   4 C :   -0.128198
   5 C :   -0.137788
   6 H :    0.106448
   7 H :    0.119072
   8 H :    0.103570
   9 H :    0.111037
  10 B :    0.062417
  11 H :    0.017668
  12 C :   -0.396760
  13 C :   -0.060973
  14 C :   -0.099375
  15 H :    0.147900
  16 C :   -0.329082
  17 H :    0.134386
  18 H :    0.164626
  19 H :   -0.016793
  20 B :    0.575864
  21 O :   -0.470135
  22 O :   -0.488725
  23 C :    0.200115
  24 C :    0.216235
  25 C :   -0.354074
  26 H :    0.137175
  27 H :    0.116582
  28 H :    0.132706
  29 C :   -0.344202
  30 H :    0.138568
  31 H :    0.128428
  32 H :    0.113746
  33 C :   -0.351704
  34 H :    0.132975
  35 H :    0.118062
  36 H :    0.134262
  37 C :   -0.352728
  38 H :    0.118539
  39 H :    0.136515
  40 H :    0.132332
  41 N :   -0.451220
  42 C :   -0.202067
  43 H :    0.089889
  44 H :    0.123384
  45 H :    0.133454
  46 C :   -0.193493
  47 H :    0.121090
  48 H :    0.093652
  49 H :    0.134844
  50 S :    0.294124
Sum of atomic charges:    0.0000000

--------------------------------
MULLIKEN REDUCED ORBITAL CHARGES
--------------------------------
  0 C s       :     3.152058  s :     3.152058
      pz      :     1.010798  p :     2.928538
      px      :     0.941340
      py      :     0.976400
      dz2     :     0.003122  d :     0.034941
      dxz     :     0.006441
      dyz     :     0.003267
      dx2y2   :     0.011557
      dxy     :     0.010555

  1 C s       :     3.186084  s :     3.186084
      pz      :     0.989177  p :     2.962554
      px      :     0.984146
      py      :     0.989231
      dz2     :     0.002883  d :     0.036161
      dxz     :     0.005471
      dyz     :     0.004886
      dx2y2   :     0.009649
      dxy     :     0.013272

  2 C s       :     3.185634  s :     3.185634
      pz      :     0.950801  p :     2.759278
      px      :     0.915369
      py      :     0.893107
      dz2     :     0.003201  d :     0.031507
      dxz     :     0.004539
      dyz     :     0.005523
      dx2y2   :     0.007910
      dxy     :     0.010334

  3 C s       :     3.092605  s :     3.092605
      pz      :     0.953577  p :     2.684473
      px      :     0.927528
      py      :     0.803368
      dz2     :     0.004311  d :     0.058514
      dxz     :     0.008331
      dyz     :     0.008532
      dx2y2   :     0.019238
      dxy     :     0.018102

  4 C s       :     3.150302  s :     3.150302
      pz      :     1.035493  p :     2.944309
      px      :     0.948355
      py      :     0.960460
      dz2     :     0.002869  d :     0.033587
      dxz     :     0.004961
      dyz     :     0.004628
      dx2y2   :     0.009400
      dxy     :     0.011730

  5 C s       :     3.169262  s :     3.169262
      pz      :     0.980942  p :     2.932696
      px      :     1.001883
      py      :     0.949870
      dz2     :     0.004013  d :     0.035830
      dxz     :     0.003138
      dyz     :     0.006608
      dx2y2   :     0.012085
      dxy     :     0.009986

  6 H s       :     0.881274  s :     0.881274
      pz      :     0.003004  p :     0.012278
      px      :     0.002261
      py      :     0.007013

  7 H s       :     0.867894  s :     0.867894
      pz      :     0.003008  p :     0.013035
      px      :     0.005234
      py      :     0.004792

  8 H s       :     0.883788  s :     0.883788
      pz      :     0.003190  p :     0.012642
      px      :     0.004662
      py      :     0.004791

  9 H s       :     0.876738  s :     0.876738
      pz      :     0.002607  p :     0.012224
      px      :     0.007342
      py      :     0.002275

 10 B s       :     2.874322  s :     2.874322
      pz      :     0.700571  p :     2.005363
      px      :     0.727106
      py      :     0.577687
      dz2     :     0.010174  d :     0.057897
      dxz     :     0.014721
      dyz     :     0.009597
      dx2y2   :     0.009264
      dxy     :     0.014141

 11 H s       :     0.971114  s :     0.971114
      pz      :     0.005650  p :     0.011217
      px      :     0.002868
      py      :     0.002699

 12 C s       :     3.317212  s :     3.317212
      pz      :     1.061709  p :     3.045218
      px      :     0.997022
      py      :     0.986487
      dz2     :     0.010316  d :     0.034331
      dxz     :     0.005784
      dyz     :     0.006692
      dx2y2   :     0.005551
      dxy     :     0.005987

 13 C s       :     3.162414  s :     3.162414
      pz      :     0.903219  p :     2.861706
      px      :     0.974161
      py      :     0.984327
      dz2     :     0.009349  d :     0.036852
      dxz     :     0.009387
      dyz     :     0.009172
      dx2y2   :     0.003083
      dxy     :     0.005862

 14 C s       :     3.148519  s :     3.148519
      pz      :     0.985038  p :     2.915080
      px      :     0.968701
      py      :     0.961342
      dz2     :     0.010211  d :     0.035777
      dxz     :     0.007076
      dyz     :     0.007402
      dx2y2   :     0.006453
      dxy     :     0.004634

 15 H s       :     0.839478  s :     0.839478
      pz      :     0.001915  p :     0.012622
      px      :     0.005262
      py      :     0.005445

 16 C s       :     3.259856  s :     3.259856
      pz      :     0.904500  p :     3.033923
      px      :     1.068765
      py      :     1.060658
      dz2     :     0.009589  d :     0.035304
      dxz     :     0.007449
      dyz     :     0.007490
      dx2y2   :     0.005211
      dxy     :     0.005565

 17 H s       :     0.853038  s :     0.853038
      pz      :     0.007543  p :     0.012575
      px      :     0.002505
      py      :     0.002527

 18 H s       :     0.822694  s :     0.822694
      pz      :     0.003639  p :     0.012680
      px      :     0.004473
      py      :     0.004568

 19 H s       :     1.010418  s :     1.010418
      pz      :     0.002866  p :     0.006376
      px      :     0.000935
      py      :     0.002574

 20 B s       :     2.680919  s :     2.680919
      pz      :     0.516340  p :     1.592953
      px      :     0.580038
      py      :     0.496576
      dz2     :     0.019289  d :     0.150263
      dxz     :     0.033462
      dyz     :     0.024287
      dx2y2   :     0.039005
      dxy     :     0.034219

 21 O s       :     3.836835  s :     3.836835
      pz      :     1.621252  p :     4.608619
      px      :     1.375721
      py      :     1.611646
      dz2     :     0.003843  d :     0.024682
      dxz     :     0.005617
      dyz     :     0.005740
      dx2y2   :     0.004846
      dxy     :     0.004636

 22 O s       :     3.845374  s :     3.845374
      pz      :     1.684802  p :     4.619448
      px      :     1.497232
      py      :     1.437414
      dz2     :     0.004178  d :     0.023903
      dxz     :     0.003741
      dyz     :     0.003578
      dx2y2   :     0.006359
      dxy     :     0.006047

 23 C s       :     3.149091  s :     3.149091
      pz      :     0.857903  p :     2.579227
      px      :     0.898472
      py      :     0.822853
      dz2     :     0.012510  d :     0.071566
      dxz     :     0.015385
      dyz     :     0.015972
      dx2y2   :     0.009620
      dxy     :     0.018080

 24 C s       :     3.143615  s :     3.143615
      pz      :     0.962087  p :     2.568637
      px      :     0.730395
      py      :     0.876155
      dz2     :     0.014183  d :     0.071513
      dxz     :     0.009936
      dyz     :     0.014793
      dx2y2   :     0.012163
      dxy     :     0.020438

 25 C s       :     3.242336  s :     3.242336
      pz      :     1.034767  p :     3.081588
      px      :     0.994094
      py      :     1.052727
      dz2     :     0.005552  d :     0.030150
      dxz     :     0.006063
      dyz     :     0.006744
      dx2y2   :     0.002708
      dxy     :     0.009083

 26 H s       :     0.851285  s :     0.851285
      pz      :     0.002343  p :     0.011541
      px      :     0.004219
      py      :     0.004978

 27 H s       :     0.871828  s :     0.871828
      pz      :     0.003452  p :     0.011590
      px      :     0.003400
      py      :     0.004738

 28 H s       :     0.855644  s :     0.855644
      pz      :     0.006146  p :     0.011650
      px      :     0.002540
      py      :     0.002965

 29 C s       :     3.238656  s :     3.238656
      pz      :     0.983014  p :     3.075711
      px      :     1.060257
      py      :     1.032441
      dz2     :     0.003540  d :     0.029835
      dxz     :     0.008203
      dyz     :     0.007559
      dx2y2   :     0.002064
      dxy     :     0.008469

 30 H s       :     0.849889  s :     0.849889
      pz      :     0.002545  p :     0.011544
      px      :     0.003579
      py      :     0.005420

 31 H s       :     0.859234  s :     0.859234
      pz      :     0.003809  p :     0.012337
      px      :     0.005515
      py      :     0.003013

 32 H s       :     0.874611  s :     0.874611
      pz      :     0.003931  p :     0.011644
      px      :     0.003869
      py      :     0.003844

 33 C s       :     3.241538  s :     3.241538
      pz      :     0.971724  p :     3.080010
      px      :     1.054669
      py      :     1.053617
      dz2     :     0.008148  d :     0.030156
      dxz     :     0.001680
      dyz     :     0.008755
      dx2y2   :     0.002972
      dxy     :     0.008602

 34 H s       :     0.855481  s :     0.855481
      pz      :     0.002159  p :     0.011544
      px      :     0.004883
      py      :     0.004503

 35 H s       :     0.870341  s :     0.870341
      pz      :     0.002253  p :     0.011597
      px      :     0.005968
      py      :     0.003375

 36 H s       :     0.854056  s :     0.854056
      pz      :     0.004582  p :     0.011682
      px      :     0.002348
      py      :     0.004752

 37 C s       :     3.241355  s :     3.241355
      pz      :     1.016067  p :     3.081240
      px      :     1.063678
      py      :     1.001494
      dz2     :     0.009304  d :     0.030133
      dxz     :     0.001120
      dyz     :     0.007219
      dx2y2   :     0.002759
      dxy     :     0.009731

 38 H s       :     0.869881  s :     0.869881
      pz      :     0.002162  p :     0.011580
      px      :     0.005322
      py      :     0.004096

 39 H s       :     0.852025  s :     0.852025
      pz      :     0.002262  p :     0.011459
      px      :     0.005665
      py      :     0.003533

 40 H s       :     0.856084  s :     0.856084
      pz      :     0.006337  p :     0.011585
      px      :     0.002319
      py      :     0.002929

 41 N s       :     3.571210  s :     3.571210
      pz      :     1.241298  p :     3.839794
      px      :     1.512646
      py      :     1.085850
      dz2     :     0.007635  d :     0.040216
      dxz     :     0.006060
      dyz     :     0.011184
      dx2y2   :     0.006647
      dxy     :     0.008690

 42 C s       :     3.198153  s :     3.198153
      pz      :     0.965640  p :     2.956899
      px      :     0.974818
      py      :     1.016442
      dz2     :     0.007813  d :     0.047014
      dxz     :     0.009591
      dyz     :     0.011245
      dx2y2   :     0.006847
      dxy     :     0.011519

 43 H s       :     0.899158  s :     0.899158
      pz      :     0.002671  p :     0.010953
      px      :     0.005600
      py      :     0.002681

 44 H s       :     0.865668  s :     0.865668
      pz      :     0.002601  p :     0.010948
      px      :     0.003176
      py      :     0.005171

 45 H s       :     0.855482  s :     0.855482
      pz      :     0.005072  p :     0.011064
      px      :     0.002374
      py      :     0.003617

 46 C s       :     3.202781  s :     3.202781
      pz      :     0.904986  p :     2.944099
      px      :     1.042930
      py      :     0.996183
      dz2     :     0.006646  d :     0.046613
      dxz     :     0.012806
      dyz     :     0.012350
      dx2y2   :     0.003549
      dxy     :     0.011262

 47 H s       :     0.867983  s :     0.867983
      pz      :     0.002141  p :     0.010927
      px      :     0.003815
      py      :     0.004972

 48 H s       :     0.895490  s :     0.895490
      pz      :     0.003171  p :     0.010858
      px      :     0.005079
      py      :     0.002607

 49 H s       :     0.853201  s :     0.853201
      pz      :     0.004089  p :     0.011955
      px      :     0.004278
      py      :     0.003588

 50 S s       :     5.817083  s :     5.817083
      pz      :     3.038518  p :     9.794981
      px      :     3.394802
      py      :     3.361661
      dz2     :     0.037241  d :     0.093812
      dxz     :     0.013507
      dyz     :     0.013373
      dx2y2   :     0.011687
      dxy     :     0.018005



                     *******************************
                     * LOEWDIN POPULATION ANALYSIS *
                     *******************************

----------------------
LOEWDIN ATOMIC CHARGES
----------------------
   0 C :   -0.100096
   1 C :   -0.081459
   2 C :   -0.049792
   3 C :    0.038767
   4 C :   -0.109980
   5 C :   -0.078788
   6 H :    0.073431
   7 H :    0.078915
   8 H :    0.075319
   9 H :    0.075087
  10 B :   -0.243350
  11 H :    0.154363
  12 C :   -0.196085
  13 C :   -0.061633
  14 C :   -0.126046
  15 H :    0.093610
  16 C :   -0.222681
  17 H :    0.085460
  18 H :    0.095826
  19 H :    0.028928
  20 B :   -0.047056
  21 O :   -0.104734
  22 O :   -0.121122
  23 C :    0.092904
  24 C :    0.092654
  25 C :   -0.203816
  26 H :    0.085447
  27 H :    0.077062
  28 H :    0.081978
  29 C :   -0.205688
  30 H :    0.085849
  31 H :    0.083980
  32 H :    0.075552
  33 C :   -0.204189
  34 H :    0.083492
  35 H :    0.077637
  36 H :    0.083128
  37 C :   -0.206269
  38 H :    0.076748
  39 H :    0.084377
  40 H :    0.080957
  41 N :   -0.133230
  42 C :   -0.127955
  43 H :    0.046683
  44 H :    0.073739
  45 H :    0.078437
  46 C :   -0.117283
  47 H :    0.070804
  48 H :    0.050719
  49 H :    0.084511
  50 S :    0.374892

-------------------------------
LOEWDIN REDUCED ORBITAL CHARGES
-------------------------------
  0 C s       :     2.891138  s :     2.891138
      pz      :     1.005550  p :     3.123730
      px      :     1.067181
      py      :     1.050999
      dz2     :     0.006170  d :     0.085228
      dxz     :     0.014590
      dyz     :     0.006203
      dx2y2   :     0.030021
      dxy     :     0.028244

  1 C s       :     2.891871  s :     2.891871
      pz      :     0.981821  p :     3.103298
      px      :     1.061411
      py      :     1.060066
      dz2     :     0.005553  d :     0.086290
      dxz     :     0.011498
      dyz     :     0.010035
      dx2y2   :     0.025896
      dxy     :     0.033309

  2 C s       :     2.881318  s :     2.881318
      pz      :     0.967519  p :     3.089187
      px      :     1.079844
      py      :     1.041823
      dz2     :     0.006570  d :     0.079288
      dxz     :     0.009233
      dyz     :     0.012627
      dx2y2   :     0.023250
      dxy     :     0.027609

  3 C s       :     2.851798  s :     2.851798
      pz      :     0.953489  p :     2.968960
      px      :     1.060651
      py      :     0.954820
      dz2     :     0.009143  d :     0.140475
      dxz     :     0.017827
      dyz     :     0.017867
      dx2y2   :     0.048897
      dxy     :     0.046741

  4 C s       :     2.891737  s :     2.891737
      pz      :     1.027119  p :     3.135563
      px      :     1.051022
      py      :     1.057422
      dz2     :     0.005792  d :     0.082680
      dxz     :     0.010272
      dyz     :     0.009769
      dx2y2   :     0.025998
      dxy     :     0.030850

  5 C s       :     2.891981  s :     2.891981
      pz      :     0.982788  p :     3.100193
      px      :     1.057045
      py      :     1.060360
      dz2     :     0.007820  d :     0.086615
      dxz     :     0.006358
      dyz     :     0.015194
      dx2y2   :     0.030512
      dxy     :     0.026731

  6 H s       :     0.886461  s :     0.886461
      pz      :     0.009025  p :     0.040108
      px      :     0.007477
      py      :     0.023606

  7 H s       :     0.878459  s :     0.878459
      pz      :     0.009169  p :     0.042626
      px      :     0.017132
      py      :     0.016326

  8 H s       :     0.883288  s :     0.883288
      pz      :     0.009673  p :     0.041392
      px      :     0.015939
      py      :     0.015780

  9 H s       :     0.885072  s :     0.885072
      pz      :     0.007597  p :     0.039841
      px      :     0.024872
      py      :     0.007372

 10 B s       :     2.724971  s :     2.724971
      pz      :     0.863626  p :     2.379225
      px      :     0.827375
      py      :     0.688224
      dz2     :     0.024331  d :     0.139154
      dxz     :     0.035350
      dyz     :     0.024923
      dx2y2   :     0.024014
      dxy     :     0.030537

 11 H s       :     0.817661  s :     0.817661
      pz      :     0.012163  p :     0.027977
      px      :     0.008268
      py      :     0.007545

 12 C s       :     2.935335  s :     2.935335
      pz      :     1.107147  p :     3.179008
      px      :     1.044693
      py      :     1.027168
      dz2     :     0.026154  d :     0.081741
      dxz     :     0.014264
      dyz     :     0.014892
      dx2y2   :     0.011320
      dxy     :     0.015111

 13 C s       :     2.899284  s :     2.899284
      pz      :     1.050288  p :     3.074525
      px      :     1.008042
      py      :     1.016195
      dz2     :     0.024740  d :     0.087824
      dxz     :     0.023860
      dyz     :     0.023791
      dx2y2   :     0.004965
      dxy     :     0.010468

 14 C s       :     2.897771  s :     2.897771
      pz      :     1.062082  p :     3.141857
      px      :     1.038596
      py      :     1.041178
      dz2     :     0.022761  d :     0.086418
      dxz     :     0.017900
      dyz     :     0.018797
      dx2y2   :     0.013939
[...]
freq.     579.47  E(vib)   ...       0.11 
freq.     588.12  E(vib)   ...       0.10 
freq.     595.83  E(vib)   ...       0.10 
freq.     614.21  E(vib)   ...       0.10 
freq.     616.19  E(vib)   ...       0.09 
freq.     681.90  E(vib)   ...       0.08 
freq.     711.73  E(vib)   ...       0.07 
freq.     742.28  E(vib)   ...       0.06 
freq.     746.70  E(vib)   ...       0.06 
freq.     762.33  E(vib)   ...       0.06 
freq.     767.63  E(vib)   ...       0.06 
freq.     778.03  E(vib)   ...       0.05 
freq.     788.20  E(vib)   ...       0.05 
freq.     801.13  E(vib)   ...       0.05 
freq.     828.25  E(vib)   ...       0.04 
freq.     883.93  E(vib)   ...       0.04 
freq.     886.12  E(vib)   ...       0.04 
freq.     892.83  E(vib)   ...       0.03 
freq.     897.84  E(vib)   ...       0.03 
freq.     901.82  E(vib)   ...       0.03 
freq.     948.85  E(vib)   ...       0.03 
freq.     951.31  E(vib)   ...       0.03 
freq.     952.82  E(vib)   ...       0.03 
freq.     976.10  E(vib)   ...       0.03 
freq.     986.65  E(vib)   ...       0.02 
freq.     996.46  E(vib)   ...       0.02 
freq.     997.88  E(vib)   ...       0.02 
freq.    1002.44  E(vib)   ...       0.02 
freq.    1009.22  E(vib)   ...       0.02 
freq.    1021.29  E(vib)   ...       0.02 
freq.    1029.70  E(vib)   ...       0.02 
freq.    1051.57  E(vib)   ...       0.02 
freq.    1078.82  E(vib)   ...       0.02 
freq.    1092.45  E(vib)   ...       0.02 
freq.    1098.33  E(vib)   ...       0.02 
freq.    1110.34  E(vib)   ...       0.02 
freq.    1124.56  E(vib)   ...       0.01 
freq.    1129.90  E(vib)   ...       0.01 
freq.    1153.70  E(vib)   ...       0.01 
freq.    1161.52  E(vib)   ...       0.01 
freq.    1180.16  E(vib)   ...       0.01 
freq.    1185.88  E(vib)   ...       0.01 
freq.    1195.33  E(vib)   ...       0.01 
freq.    1200.83  E(vib)   ...       0.01 
freq.    1209.70  E(vib)   ...       0.01 
freq.    1214.21  E(vib)   ...       0.01 
freq.    1235.97  E(vib)   ...       0.01 
freq.    1266.70  E(vib)   ...       0.01 
freq.    1267.67  E(vib)   ...       0.01 
freq.    1272.73  E(vib)   ...       0.01 
freq.    1293.53  E(vib)   ...       0.01 
freq.    1321.55  E(vib)   ...       0.01 
freq.    1326.51  E(vib)   ...       0.01 
freq.    1340.93  E(vib)   ...       0.01 
freq.    1386.20  E(vib)   ...       0.00 
freq.    1394.24  E(vib)   ...       0.00 
freq.    1399.83  E(vib)   ...       0.00 
freq.    1423.50  E(vib)   ...       0.00 
freq.    1424.99  E(vib)   ...       0.00 
freq.    1432.79  E(vib)   ...       0.00 
freq.    1442.71  E(vib)   ...       0.00 
freq.    1458.43  E(vib)   ...       0.00 
freq.    1483.46  E(vib)   ...       0.00 
freq.    1486.19  E(vib)   ...       0.00 
freq.    1486.99  E(vib)   ...       0.00 
freq.    1494.21  E(vib)   ...       0.00 
freq.    1495.56  E(vib)   ...       0.00 
freq.    1496.74  E(vib)   ...       0.00 
freq.    1500.87  E(vib)   ...       0.00 
freq.    1501.83  E(vib)   ...       0.00 
freq.    1510.07  E(vib)   ...       0.00 
freq.    1516.67  E(vib)   ...       0.00 
freq.    1517.65  E(vib)   ...       0.00 
freq.    1520.72  E(vib)   ...       0.00 
freq.    1523.43  E(vib)   ...       0.00 
freq.    1537.97  E(vib)   ...       0.00 
freq.    1539.37  E(vib)   ...       0.00 
freq.    1556.01  E(vib)   ...       0.00 
freq.    1591.84  E(vib)   ...       0.00 
freq.    1661.84  E(vib)   ...       0.00 
freq.    1690.14  E(vib)   ...       0.00 
freq.    1754.94  E(vib)   ...       0.00 
freq.    2212.31  E(vib)   ...       0.00 
freq.    2628.98  E(vib)   ...       0.00 
freq.    2976.31  E(vib)   ...       0.00 
freq.    2985.51  E(vib)   ...       0.00 
freq.    3082.44  E(vib)   ...       0.00 
freq.    3085.76  E(vib)   ...       0.00 
freq.    3086.36  E(vib)   ...       0.00 
freq.    3090.35  E(vib)   ...       0.00 
freq.    3104.58  E(vib)   ...       0.00 
freq.    3109.33  E(vib)   ...       0.00 
freq.    3166.71  E(vib)   ...       0.00 
freq.    3167.77  E(vib)   ...       0.00 
freq.    3168.77  E(vib)   ...       0.00 
freq.    3174.43  E(vib)   ...       0.00 
freq.    3176.88  E(vib)   ...       0.00 
freq.    3178.74  E(vib)   ...       0.00 
freq.    3183.88  E(vib)   ...       0.00 
freq.    3192.01  E(vib)   ...       0.00 
freq.    3193.96  E(vib)   ...       0.00 
freq.    3200.00  E(vib)   ...       0.00 
freq.    3210.77  E(vib)   ...       0.00 
freq.    3221.55  E(vib)   ...       0.00 
freq.    3234.12  E(vib)   ...       0.00 
freq.    3243.12  E(vib)   ...       0.00 
freq.    3255.70  E(vib)   ...       0.00 
freq.    3269.45  E(vib)   ...       0.00 
freq.    3294.90  E(vib)   ...       0.00 

------------
INNER ENERGY
------------

The inner energy is: U= E(el) + E(ZPE) + E(vib) + E(rot) + E(trans)
    E(el)   - is the total energy from the electronic structure calculation
              = E(kin-el) + E(nuc-el) + E(el-el) + E(nuc-nuc)
    E(ZPE)  - the the zero temperature vibrational energy from the frequency calculation
    E(vib)  - the the finite temperature correction to E(ZPE) due to population
              of excited vibrational states
    E(rot)  - is the rotational thermal energy
    E(trans)- is the translational thermal energy

Summary of contributions to the inner energy U:
Electronic energy                ...  -1355.10315023 Eh
Zero point energy                ...      0.43249590 Eh     271.39 kcal/mol
Thermal vibrational correction   ...      0.02007725 Eh      12.60 kcal/mol
Thermal rotational correction    ...      0.00141627 Eh       0.89 kcal/mol
Thermal translational correction ...      0.00141627 Eh       0.89 kcal/mol
-----------------------------------------------------------------------
Total thermal energy                  -1354.64774453 Eh


Summary of corrections to the electronic energy:
(perhaps to be used in another calculation)
Total thermal correction                  0.02290979 Eh      14.38 kcal/mol
Non-thermal (ZPE) correction              0.43249590 Eh     271.39 kcal/mol
-----------------------------------------------------------------------
Total correction                          0.45540570 Eh     285.77 kcal/mol


--------
ENTHALPY
--------

The enthalpy is H = U + kB*T
                kB is Boltzmann's constant
Total thermal energy              ...  -1354.64774453 Eh 
Thermal Enthalpy correction       ...      0.00094421 Eh       0.59 kcal/mol
-----------------------------------------------------------------------
Total Enthalpy                    ...  -1354.64680033 Eh


Note: Only C1 symmetry has been detected, increase convergence thresholds 
      if your molecule has a higher symmetry. Symmetry factor of 1.0 is   
      used for the rotational entropy correction. 
 

Note: Rotational entropy computed according to Herzberg 
Infrared and Raman Spectra, Chapter V,1, Van Nostrand Reinhold, 1945 
Point Group:  C1, Symmetry Number:   1  
Rotational constants in cm-1:     0.011526     0.005401     0.004414 

Vibrational entropy computed according to the QRRHO of S. Grimme
Chem.Eur.J. 2012 18 9955 using a reference frequency of 100.0 cm-1


-------
ENTROPY
-------

The entropy contributions are T*S = T*(S(el)+S(vib)+S(rot)+S(trans))
     S(el)   - electronic entropy
     S(vib)  - vibrational entropy
     S(rot)  - rotational entropy
     S(trans)- translational entropy
The entropies will be listed as multiplied by the temperature to get
units of energy

Electronic entropy                ...      0.00000000 Eh      0.00 kcal/mol
Vibrational entropy               ...      0.03442869 Eh     21.60 kcal/mol
Rotational entropy                ...      0.01664286 Eh     10.44 kcal/mol
Translational entropy             ...      0.02061729 Eh     12.94 kcal/mol
-----------------------------------------------------------------------
Final entropy term                ...      0.07168884 Eh     44.99 kcal/mol

In case the symmetry of your molecule has not been determined correctly
or in case you have a reason to use a different symmetry number we print 
out the resulting rotational entropy values for sn=1,12:

 non-linear molecules -----------------------------------
|  sn= 1 | S(rot)=       0.01664286 Eh     10.44 kcal/mol|
|  sn= 2 | S(rot)=       0.01598840 Eh     10.03 kcal/mol|
|  sn= 3 | S(rot)=       0.01560557 Eh      9.79 kcal/mol|
|  sn= 4 | S(rot)=       0.01533395 Eh      9.62 kcal/mol|
|  sn= 5 | S(rot)=       0.01512326 Eh      9.49 kcal/mol|
|  sn= 6 | S(rot)=       0.01495111 Eh      9.38 kcal/mol|
|  sn= 7 | S(rot)=       0.01480557 Eh      9.29 kcal/mol|
|  sn= 8 | S(rot)=       0.01467949 Eh      9.21 kcal/mol|
|  sn= 9 | S(rot)=       0.01456828 Eh      9.14 kcal/mol|
|  sn=10 | S(rot)=       0.01446880 Eh      9.08 kcal/mol|
|  sn=11 | S(rot)=       0.01437881 Eh      9.02 kcal/mol|
|  sn=12 | S(rot)=       0.01429666 Eh      8.97 kcal/mol|
 linear molecules ---------------------------------------
|  Dinfh | S(rot)=       0.01044616 Eh      6.56 kcal/mol|
|  Cinfv | S(rot)=       0.01110062 Eh      6.97 kcal/mol|
 --------------------------------------------------------


-------------------
GIBBS FREE ENERGY
-------------------

The Gibbs free energy is G = H - T*S

Total enthalpy                    ...  -1354.64680033 Eh 
Total entropy correction          ...     -0.07168884 Eh    -44.99 kcal/mol
-----------------------------------------------------------------------
Final Gibbs free energy         ...  -1354.71848917 Eh

For completeness - the Gibbs free energy minus the electronic energy
G-E(el)                           ...      0.38466106 Eh    241.38 kcal/mol

WARNING (PropertyFile): The property 'Hessian' exists multiple times for geometry 1 which is not allowed

Maximum memory used throughout the entire PROP-calculation: 354.8 MB



--------------------------------------------------------------------------------
                   Intrinsic Reaction Coordinate Calculation
--------------------------------------------------------------------------------

System:
Nr. of atoms                        .... 51
Algorithm: SD (steepest descent step) plus correction
Settings:
Max. no of cycles        MaxIter    .... 100
Direction                           .... Forward and backward
Initial displacement Hessian type   .... Read
Hessian Filename                    .... input.hess
Following Hessian mode              .... 0
Initial displacement type           .... Energy
  Initial displacement energy change.... 2.000 mEh
Coordinate system following type    .... Cartesian
Length of steepest descent step     .... 0.150 bohr
Do parabolic fit 
  if SD step is uphill              .... YES
Do Correction to SD step            .... YES
Scaling for length of correction
  compared to SD step               .... 0.333
Do parabolic fit to SD correction   .... YES
Only interpolate for parabolic fit  .... YES
Do update to length of
  SD step and correction            .... YES
Convergence Tolerances:
  Max. Gradient            TolMAXG  ....  2.0000e-03 Eh/bohr
  RMS Gradient             TolRMSG  ....  5.0000e-04 Eh/bohr
Storing full IRC trajectory in      .... input_IRC_Full_trj.xyz
Storing forward trajectory in       .... input_IRC_F_trj.xyz
Storing backward trajectory in      .... input_IRC_B_trj.xyz


 ...good, the file input.hess exists
Reading the hessian file           ...... done
Determining length of initial displacement:
  Requested energy change (quadratic behavior): 2.000 mEh
  Resulting scaling factor for initial displacement along normalized TS mode: 1.4342

         *************************************************************
         *                          FORWARD IRC                      *
         *************************************************************

Iteration    E(Eh)      dE(kcal/mol)  max(|G|)   RMS(G) 
Convergence thresholds                0.002000  0.000500            
    0     -1355.101239    1.199543    0.016877  0.003232
    1     -1355.103225   -0.046650    0.004932  0.000940
    2     -1355.103405   -0.159867    0.003405  0.000715
    3     -1355.103510   -0.225637    0.002540  0.000544
    4     -1355.103663   -0.321662    0.001217  0.000323

                      ***********************HURRAY********************
                      ***            THE IRC HAS CONVERGED          ***
                      *************************************************


         *************************************************************
         *                          BACKWARD IRC                     *
         *************************************************************

Iteration    E(Eh)      dE(kcal/mol)  max(|G|)   RMS(G) 
Convergence thresholds                0.002000  0.000500            
    0     -1355.104046   -0.562160    0.009947  0.002310
    1     -1355.104791   -1.029464    0.005880  0.001319
    2     -1355.105320   -1.361818    0.003303  0.000660
    3     -1355.105412   -1.419138    0.002766  0.000519
    4     -1355.105482   -1.463386    0.002322  0.000419
    5     -1355.105561   -1.512566    0.001883  0.000347

                      ***********************HURRAY********************
                      ***            THE IRC HAS CONVERGED          ***
                      *************************************************


---------------------------------------------------------------
                       IRC PATH SUMMARY              
---------------------------------------------------------------
All gradients are in Eh/Bohr.

Step        E(Eh)      dE(kcal/mol)  max(|G|)   RMS(G) 
   1     -1355.105561   -1.512566    0.001883  0.000347
   2     -1355.105482   -1.463386    0.002322  0.000419
   3     -1355.105412   -1.419138    0.002766  0.000519
   4     -1355.105320   -1.361818    0.003303  0.000660
   5     -1355.104791   -1.029464    0.005880  0.001319
   6     -1355.104046   -0.562160    0.009947  0.002310
   7     -1355.103150    0.000000    0.002164  0.000478 <= TS
   8     -1355.101239    1.199543    0.016877  0.003232
   9     -1355.103225   -0.046650    0.004932  0.000940
  10     -1355.103405   -0.159867    0.003405  0.000715
  11     -1355.103510   -0.225637    0.002540  0.000544
  12     -1355.103663   -0.321662    0.001217  0.000323

--------------------------------
SUGGESTED CITATIONS FOR THIS RUN
--------------------------------

Below you find a list of papers that are relevant to this ORCA run
We neither can nor want to force you to cite these papers, but we appreciate if you do
You receive ORCA, which is the product of decades of hard work by many enthusiastic individuals, for free
The only thing we kindly ask in return is that you cite our papers,
We deeply appreciate it, if you show your appreciation for ORCA by not just citing the generic ORCA reference.

Please note that relegating all ORCA citations to the supporting information does *not* help us.
SI sections are not indexed - citations you put there will not count into any citation statistics
But we need these citations in order to attract the funding resources that allow us to do what we are doing

Therefore, if you are a happy ORCA user, please consider citing a few of the papers listed below in the main body of your paper

In addition to the list printed below, the program has created the file input.bibtex that contains the list in bibtex format
You can import this file easily into all common literature databanks and citation aid programs


List of essential papers. We consider these as the minimum necessary citations

  1. Neese, F.
     Software update: the ORCA program system, version 6.0
     WIRES Comput. Molec. Sci. 2025 15(1), e70019
     doi.org/10.1002/wcms.7019

List of papers to cite with high priority. The work reported in these papers was absolutely
necessary for this run to complete.
Our perspective: the developers of density functionals and basis sets usually get cited in chemistry papers
Good! But without the algorithms to do something with them, the functionals or basis sets would not do anything.
Hence, in our opinion, the algorithm design and method developments papers are equally worthy of getting cited

  1. Neese, F.
     An improvement of the resolution of the identity approximation for the formation of the Coulomb matrix
     J. Comp. Chem. 2003 24(14), 1740-1747
     doi.org/10.1002/jcc.10318
  2. Neese, F.; Wennmohs, F.; Hansen, A.; Becker, U.
     Efficient, approximate and parallel Hartree-Fock and hybrid DFT calculations. A 'chain-of-spheres' algorithm for the Hartree-Fock exchange
     Chem. Phys. 2009 356(1-3), 98-109
     doi.org/10.1016/j.chemphys.2008.10.036
  3. Grimme, S.; Antony, J.; Ehrlich, S.; Krieg, H.
     A consistent and accurate ab initio parametrization of density functional dispersion correction (DFT-D) for the 94 elements H-Pu
     J. Chem. Phys. 2010 132 , 154104
     doi.org/10.1063/1.3382344
  4. Bykov, D.; Petrenko, T.; Izsak, R.; Kossmann, S.; Becker, U.; Valeev, E.; Neese, F.
     Efficient implementation of the analytic second derivatives of Hartree-Fock and hybrid DFT energies: a detailed analysis of different approximations
     Molec. Phys. 2015 113 , 1961-1977
     doi.org/10.1080/00268976.2015.1025114
  5. Helmich-Paris, B.; de Souza, B.; Neese, F.; Izsák, R.
     An improved chain of spheres for exchange algorithm
     J. Chem. Phys. 2021 155(10), 104109
     doi.org/10.1063/5.0058766
  6. Neese, F.
     The SHARK Integral Generation and Digestion System
     J. Comp. Chem. 2022 44(3), 381
     doi.org/10.1002/jcc.26942

List of suggested additional citations. These are papers that are important in the 'surrounding' of 
of this run, or papers that preceded the highly important papers. If you like your results we are grateful for a citation.

  1. Izsak, R.; Neese, F.
     An overlap fitted chain of spheres exchange method
     J. Chem. Phys. 2011 135 , 144105
     doi.org/10.1063/1.3646921
  2. Izsak, R.; Hansen, A.; Neese, F.
     The resolution of identity and chain of spheres approximations for the LPNO-CCSD singles Fock term
     Molec. Phys. 2012 110 , 2413-2417
     doi.org/10.1080/00268976.2012.687466
  3. Neese, F.
     The ORCA program system
     WIRES Comput. Molec. Sci. 2012 2(1), 73-78
     doi.org/10.1002/wcms.81
  4. Izsak, R.; Neese, F.; Klopper, W.
     Robust fitting techniques in the chain of spheres approximation to the Fock exchange: The role of the complementary space
     J. Chem. Phys. 2013 139 , 
     doi.org/10.1063/1.4819264
  5. Neese, F.
     Software update: the ORCA program system, version 4.0
     WIRES Comput. Molec. Sci. 2018 8(1), 1-6
     doi.org/10.1002/wcms.1327
  6. Neese, F.; Wennmohs, F.; Becker, U.; Riplinger, C.
     The ORCA quantum chemistry program package
     J. Chem. Phys. 2020 152(22), 224108
     doi.org/10.1063/5.0004608
  7. Neese, F.
     Software update: The ORCA program system—Version 5.0
     WIRES Comput. Molec. Sci. 2022 12(1), e1606
     doi.org/10.1002/wcms.1606

List of optional additional citations

  1. Neese, F.
     Approximate second-order SCF convergence for spin unrestricted wavefunctions
     Chem. Phys. Lett. 2000 325(1-3), 93-98
     doi.org/10.1016/s0009-2614(00)00662-x

Timings for individual modules:

Sum of individual times          ...     9291.795 sec (= 154.863 min)
Startup calculation              ...      268.535 sec (=   4.476 min)   2.9 %
SCF iterations                   ...     6027.055 sec (= 100.451 min)  64.9 %
Property integrals               ...      439.724 sec (=   7.329 min)   4.7 %
SCF Response                     ...      552.186 sec (=   9.203 min)   5.9 %
Property calculations            ...      753.076 sec (=  12.551 min)   8.1 %
SCF Gradient evaluation          ...     1251.220 sec (=  20.854 min)  13.5 %
WARNING (JSON): The property 'Hessian' exists multiple times for geometry 1 which is not allowed => overwriting previous entry!
                             ****ORCA TERMINATED NORMALLY****
TOTAL RUN TIME: 0 days 3 hours 3 minutes 44 seconds 580 msec
