58
	Energy:    5282.1654370
C         -1.89914       -2.30666        0.19371
C         -0.57022       -1.91307        0.04808
C         -0.16344       -0.59139        0.24530
C         -1.14925        0.35810        0.58873
C         -2.48644       -0.05537        0.74198
C         -2.85343       -1.36404        0.54978
H         -2.17912       -3.34493        0.04544
H          0.17903       -2.66443       -0.18723
H         -3.27123        0.64445        0.99437
H         -3.88773       -1.66112        0.66800
B          1.37187       -0.17509        0.17727
H          2.01474       -1.23252       -0.14771
C          1.97914        0.27916        1.68539
C          1.28286        0.12908        2.87905
C          1.53566        1.12983        3.83227
H          0.61539       -0.71011        3.03385
C          2.42714        2.06488        3.35972
H          1.08801        1.16890        4.81690
H          2.79238        2.93939        3.88215
B          2.67390       -1.19925        1.06200
O          4.04852       -1.10868        0.83061
O          2.32721       -2.38892        1.71466
C          4.60075       -2.38706        1.18495
C          3.55987       -2.91706        2.22921
C          4.65022       -3.24246       -0.08318
H          5.21211       -2.70261       -0.84930
H          5.14165       -4.20299        0.09610
H          3.64457       -3.43341       -0.46870
C          6.00269       -2.17511        1.73723
H          6.66426       -1.81825        0.94362
H          6.00290       -1.43267        2.53667
H          6.41074       -3.11407        2.12529
C          3.77786       -2.32926        3.62679
H          2.90083       -2.55041        4.24077
H          4.65844       -2.76071        4.11111
H          3.89960       -1.24295        3.58484
C          3.44517       -4.43206        2.30445
H          4.40309       -4.87749        2.59144
H          2.70077       -4.71002        3.05495
H          3.13432       -4.85303        1.34698
N         -0.89883        1.77182        0.80368
S          2.95015        1.72588        1.77750
H          1.77890        0.59898       -0.64393
C         -1.61488        2.49262        1.85416
C         -0.09536        2.58455       -0.12328
C         -2.50792        3.60521        1.26876
H         -0.83871        2.96431        2.49640
H         -2.19597        1.84181        2.54098
C         -1.85054        4.33027        0.07409
H         -2.70031        4.31606        2.10165
H         -3.49076        3.21422        0.92788
C         -0.33815        4.10299        0.05991
H         -0.40873        2.32775       -1.15938
H          0.98195        2.42715       -0.01592
H          0.13951        4.65468       -0.77821
H          0.10329        4.47469        1.01028
H         -2.13432        5.40427        0.07646
H         -2.23920        3.89217       -0.87293
