
                                 *****************
                                 * O   R   C   A *
                                 *****************

                                            #,                                       
                                            ###                                      
                                            ####                                     
                                            #####                                    
                                            ######                                   
                                           ########,                                 
                                     ,,################,,,,,                         
                               ,,#################################,,                 
                          ,,##########################################,,             
                       ,#########################################, ''#####,          
                    ,#############################################,,   '####,        
                  ,##################################################,,,,####,       
                ,###########''''           ''''###############################       
              ,#####''   ,,,,##########,,,,          '''####'''          '####       
            ,##' ,,,,###########################,,,                        '##       
           ' ,,###''''                  '''############,,,                           
         ,,##''                                '''############,,,,        ,,,,,,###''
      ,#''                                            '''#######################'''  
     '                                                          ''''####''''         
             ,#######,   #######,   ,#######,      ##                                
            ,#'     '#,  ##    ##  ,#'     '#,    #''#        ,####,    ,#,          
            ##       ##  ##   ,#'  ##            #'  '#       #'       ,# #          
            ##       ##  #######   ##           ,######,      #####,      #          
            '#,     ,#'  ##    ##  '#,     ,#' ,#      #,     #,   #      #          
             '#######'   ##     ##  '#######'  #'      '#     '####' #    #          



                #########################################################
                #                        -***-                          #
                #          Department of theory and spectroscopy        #
                #                                                       #
                #                      Frank Neese                      #
                #                                                       #
                #     Directorship, Architecture, Infrastructure        #
                #                    SHARK, DRIVERS                     #
                #        Core code/Algorithms in most modules           #
                #                                                       #
                #        Max Planck Institute fuer Kohlenforschung      #
                #                Kaiser Wilhelm Platz 1                 #
                #                 D-45470 Muelheim/Ruhr                 #
                #                      Germany                          #
                #                                                       #
                #                  All rights reserved                  #
                #                        -***-                          #
                #########################################################


                         Program Version 6.1.0  -  RELEASE   -
                                (GIT: $679e74b$)
                          ($2025-06-10 18:02:51 +0200$)


 With contributions from (in alphabetic order):
[Max-Planck-Institut fuer Kohlenforschung]                               
  Daniel Aravena         : Magnetic Suceptibility                        
  Michael Atanasov       : Ab Initio Ligand Field Theory (pilot matlab implementation)
  Alexander A. Auer      : GIAO ZORA, VPT2 properties, NMR spectrum      
  Ute Becker             : All parallelization in ORCA, NUMFREQ, NUMCALC 
  Giovanni Bistoni       : ED, misc. LED, open-shell LED, HFLD           
  Dmytro Bykov           : pre 5.0 version of the SCF Hessian            
  Marcos Casanova-Páez   : Triplet and SCS-CIS(D). UHF-(DLPNO)-IP/EA/STEOM-CCSD. UHF-CVS-IP/STEOM-CCSD   
  Vijay G. Chilkuri      : MRCI spin determinant printing, contributions to CSF-ICE 
  Pauline Colinet        : FMM embedding                                 
  Dipayan Datta          : RHF DLPNO-CCSD density                        
  Achintya Kumar Dutta   : EOM-CC, STEOM-CC                              
  Nicolas Foglia         : Exact transition moments, OPA infrastructure, MCD improvements    
  Dmitry Ganyushin       : Spin-Orbit,Spin-Spin,Magnetic field MRCI      
  Miquel Garcia-Rates    : C-PCM and meta-GGA Hessian, CCSD/C-PCM, Gaussian charge scheme 
  Tiago L. C. Gouveia    : GS-ROHF, GS-ROCIS                             
  Yang Guo               : DLPNO-NEVPT2, F12-NEVPT2, CIM, IAO-localization        
  Andreas Hansen         : Spin unrestricted coupled pair/coupled cluster methods 
  Ingolf Harden          : AUTO-CI MPn and infrastructure                
  Benjamin Helmich-Paris : MC-RPA, TRAH-(SCF,CASSCF), AVAS, COSX integrals, SCF dyn. polar., MC-PDFT, srDFT 
  Lee Huntington         : MR-EOM, pCC                                   
  Robert Izsak           : Overlap fitted RIJCOSX, COSX-SCS-MP3, EOM     
  Riya Kayal             : Wick's Theorem for AUTO-CI, AUTO-CI UHF-CCSDT 
  Emily Kempfer          : AUTO-CI RHF CISDT and CCSDT, approximate NEVPT4
  Christian Kollmar      : KDIIS, OOCD, Brueckner-CCSD(T), CCSD density, CASPT2, CASPT2-K, improved NEVPT2 
  Axel Koslowski         : Symmetry handling                             
  Simone Kossmann        : meta-GGA functionals, TD-DFT gradient, OOMP2, (MP2 Hessian; deprecated post 5.0) 
  Lucas Lang             : DCDCAS, Hyperfine gauge corrections, ICE-SOC+SSC
  Marvin Lechner         : AUTO-CI (C++ implementation), FIC-MRCC        
  Spencer Leger          : CASSCF response                               
  Dagmar Lenk            : GEPOL surface, SMD, ORCA-2-JSON               
  Dimitrios Liakos       : Extrapolation schemes; Compound Job, Property file
  Dimitrios Manganas     : Further ROCIS development; embedding schemes. LFT, Crystal Embedding 
  Dimitrios Pantazis     : SARC Basis sets                               
  Anastasios Papadopoulos: AUTO-CI, single reference methods and gradients 
  Taras Petrenko         : pre 6.0 DFT Hessian and TD-DFT gradient,  ECA, NRVS 
  Petra Pikulova         : Analytic Raman intensities                    
  Peter Pinski           : DLPNO-MP2, DLPNO-MP2 Gradient                 
  Shashank Vittal Rao    : ES-AILFT, MagRelax                            
  Christoph Reimann      : Effective Core Potentials                     
  Marius Retegan         : Local ZFS, SOC                                
  Christoph Riplinger    : Optimizer, TS searches, QM/MM, DLPNO-CCSD(T), (RO)-DLPNO pert. Triples 
  Michael Roemelt        : Original ROCIS implementation, recursive CI coupling coefficients
  Masaaki Saitow         : Open-shell DLPNO-CCSD energy and density      
  Barbara Sandhoefer     : DKH picture change effects                    
  Yorick L. A. Schmerwitz: GMF and freeze-and-release deltaSCF, NEB S-IDPP initial path                    
  Kantharuban Sivalingam : CASSCF convergence/infrastructure, NEVPT2, NEVPT3, NEVPT4(SD), FIC-MRCI and CEPA variants
  Bernardo de Souza      : ESD, SOC TD-DFT                               
  Georgi L. Stoychev     : AutoAux, RI-MP2 NMR, DLPNO-MP2 response, X2C  
  Van Anh Tran           : RI-MP2 g-tensors                              
  Willem Van den Heuvel  : Paramagnetic NMR                              
  Zikuan Wang            : NOTCH, Electric field optimization            
  Frank Wennmohs         : Technical directorship and infrastructure     
  Hang Xu                : AUTO-CI-Response properties                   
                                                                         
[FACCTs GmbH]                                                            
  Markus Bursch, Nicolas Foglia, Miquel Garcia-Rates, Ingolf Harden, Hagen Neugebauer, Anastasios Papadopoulos, 
  Christoph Riplinger, Bernardo de Souza, Georgi L. Stoychev                                                    
                                                                 
  APM, various basis sets, CI-OPT, improved COSX, DLPNO-Multilevel,           
  DOCKER, DRACO, updates on ESD, Fragmentator, GOAT, IRC, LR-CPCM, L-BFGS, MBIS, meta-GGA TD-DFT gradient, ML-optimized integration grids, 
  MM, NACMEs, nearIR, NEB, NEB-TS, NL-DFT gradient (VV10), 2- and 3-layer-ONIOM, interface openCOSMO-RS, QMMM,   
  Crystal-QMMM, RESP, rigid body optimization, SF, symmetry and pop. for TD-DFT, various functionals, SOLVATOR                                   
                                                                         
[Other institutions]                                                     
  V. Asgeirsson          : NEB                                           
  Christoph Bannwarth    : sTDA-DFT, sTD-DFT, PBEh-3c, B97-3c, D3        
  Giovanni Bistoni       : ETS/NOCV, ADLD/ADEX, COVALED                  
  Martin Brehm           : Molecular dynamics                            
  Ronald Cardenas        : ETS/NOCV                                      
  Martina Colucci        : COVALED                                       
  Sebastian Ehlert       : rSCAN, r2SCAN, r2SCAN-3c, D4, dhf basis sets  
  Marvin Friede          : D4 for Fr, Ra, Ac-Lr                          
  Lars Goerigk           : TD-DFT with DH, B97 family of functionals     
  Stefan Grimme          : VdW corrections, initial TS optimization, DFT functionals, gCP, sTDA/sTD-DF 
  Waldemar Hujo          : DFT-NL                                        
  H. Jonsson             : NEB                                           
  Holger Kruse           : gCP                                           
  Marcel Mueller         : wB97X-3c, vDZP basis set                      
  Hagen Neugebauer       : wr2SCAN, Native XTB                           
  Gianluca Regni         : ADLD/ADEX                                     
  Tobias Risthaus        : pre 6.0 range-separated hybrid DFT and stability analysis
  Lukas Wittmann         : regularized MP2, r2SCAN double-hybrids, wr2SCAN        
                                                                         
We gratefully acknowledge several colleagues who have allowed us to      
interface, adapt or use parts of their codes:                            
  Ed Valeev, F. Pavosevic, A. Kumar             : LibInt (2-el integral package), F12 methods 
  Garnet Chan, S. Sharma, J. Yang, R. Olivares  : DMRG                   
  Ulf Ekstrom                                   : XCFun DFT Library      
  Mihaly Kallay                                 : mrcc  (arbitrary order and MRCC methods)
  Frank Weinhold                                : gennbo (NPA and NBO analysis)           
  Simon Mueller                                 : openCOSMO-RS                            
  Christopher J. Cramer and Donald G. Truhlar   : smd solvation model                     
  S Lehtola, MJT Oliveira, MAL Marques          : LibXC Library                           
  Liviu Ungur et al                             : ANISO software                          


 Your calculation uses the libint2 library for the computation of 2-el integrals
 For citations please refer to: http://libint.valeyev.net

 Your ORCA version has been built with support for libXC version: 7.0.0
 For citations please refer to: https://libxc.gitlab.io

 This ORCA versions uses:
   CBLAS   interface :  Fast vector & matrix operations
   LAPACKE interface :  Fast linear algebra routines
   SCALAPACK package :  Parallel linear algebra routines
   Shared memory     :  Shared parallel matrices
   BLAS/LAPACK       :  OpenBLAS 0.3.29  USE64BITINT DYNAMIC_ARCH NO_AFFINITY Haswell SINGLE_THREADED
        Core in use  :  Haswell
   Copyright (c) 2011-2014, The OpenBLAS Project


  ***********************************
  * Starting time: Mon Jul 21 10:39:09 2025
  * Host name:     node319.cluster
  * Process ID:    3790263
  * Working dir.:  /scratch/53127131/_e0ifd0
  ***********************************

NOTE: MaxCore=3840 MB was set to SCF,MP2,MDCI,CIPSI,MRCI,RASCI and CIS
      => If you want to overwrite this, your respective input block should be placed after the MaxCore statement
Your calculation utilizes the atom-pairwise dispersion correction
with the zero-damping scheme (D30)


XCFun DFT library Copyright 2009-2010 Ulf Ekstrom and contributors.
See http://admol.org/xcfun for more information.
This is free software; see the source code for copying conditions.
There is ABSOLUTELY NO WARRANTY; not even for MERCHANTABILITY or FITNESS FOR A PARTICULAR PURPOSE.
For details see the documentation.
Scientific users of this library should cite U. Ekstrom, L. Visscher, R. Bast, A. J. Thorvaldsen and K. Ruud;
J.Chem.Theor.Comp. 2010, DOI: 10.1021/ct100117s
XCFun Version 0.99 

Warning: RI is on but no J-basis has been assigned. Assigning Def2/J (nothing to worry about!)
================================================================================

----- Orbital basis set information -----
Your calculation utilizes the basis: 6-31+G**
   H-He, Li-Ne : W. J. Hehre, R. Ditchfield and J.A. Pople, J. Chem. Phys. 56, 2257 (1972).
                 Note: He and Ne are unpublished basis sets taken from the Gaussian program.
                 Note: Li and B from J. D. Dill and J. A. Pople, J. Chem. Phys. 62, 2921 (1975).
   Na - Ar     : M. M. Francl, W. J. Pietro, W. J. Hehre, J. S. Binkley, M. S. Gordon, 
                 D. J. DeFrees and J. A. Pople, J. Chem. Phys. 77, 3654 (1982).
   K - Zn      : V. A. Rassolov, J. A. Pople, M. A. Ratner, and T. L. Windus, J. Chem. Phys. 109, 1223 (1998).
   Additional Pol./Diff. from the 6-311G equivalent.

----- AuxJ basis set information -----
Your calculation utilizes the auxiliary basis: def2/J
   H-Rn: F. Weigend, Phys. Chem. Chem. Phys. 8, 1057 (2006).
   Fr-Lr: K. Eichkorn, F. Weigend, O. Treutler, R. Ahlrichs; Theor. Chem. Acc. 97, 119 (1997).

================================================================================
                                        WARNINGS
                       Please study these warnings very carefully!
================================================================================


WARNING: Geometry Optimization
  ===> : Switching off AutoStart
         For restart on a previous wavefunction, please use MOREAD

================================================================================
                                       INPUT FILE
================================================================================
NAME = input.inp
|  1> # Automatically generated ORCA input
|  2> 
|  3> # Number of cores
|  4> %pal nprocs 8 end
|  5> # RAM per core
|  6> %maxcore 3840
|  7> 
|  8> ! wB97X-D3 
|  9> ! 6-31+G** 
| 10> ! TightSCF 
| 11> ! OptTS 
| 12> ! Freq 
| 13> ! NoSym 
| 14> 
| 15> %geom
| 16>   Calc_Hess true
| 17> end
| 18> %Output
| 19>   JSONPropFile True
| 20> End
| 21> 
| 22> 
| 23> *xyz 0 1 
| 24> C        -2.23494600     -1.44824400      0.97690300
| 25> C        -1.07094800     -0.72540600      0.63015000
| 26> C        -0.02669200     -1.43320700      0.02757900
| 27> C        -0.09926900     -2.80246400     -0.22444300
| 28> C        -1.24558300     -3.49625200      0.13450300
| 29> C        -2.30962500     -2.82006800      0.72892800
| 30> H         0.88674100     -0.89680500     -0.21550800
| 31> H         0.73793100     -3.32012800     -0.68245600
| 32> H        -1.32365800     -4.56412700     -0.04787800
| 33> H        -3.20488100     -3.37229400      0.99636300
| 34> N        -3.30028800     -0.75640700      1.62935200
| 35> B        -0.87051000      0.81403000      0.96092400
| 36> H         1.94202100      3.87821500     -0.00484800
| 37> H         3.52011700      3.08684900     -0.18651500
| 38> H         2.02499000      2.13346700     -0.27388700
| 39> C         4.10277000      0.76091500      1.23660200
| 40> H         4.99242000      1.39511000      1.16824800
| 41> H         4.40962500     -0.21763000      1.61472700
| 42> H         3.69004200      0.62348700      0.23607300
| 43> C         3.60050900      1.35136000      3.61734600
| 44> H         3.75986900      0.31196600      3.91458500
| 45> H         4.54848300      1.88825400      3.71205600
| 46> H         2.87551500      1.79430800      4.30579600
| 47> C        -0.56853000      0.98463600      2.87601700
| 48> C        -0.69781700     -0.22387100      3.56453900
| 49> C        -1.63249200     -0.20703900      4.60713400
| 50> H        -1.74806900      1.61281700      0.80887900
| 51> H         0.17620500      1.24351800      0.51534300
| 52> C         2.54872100      2.78837100      1.74157800
| 53> C         3.07798200      1.37488200      2.17971000
| 54> O         1.18545100      2.76271500      2.21329000
| 55> O         1.88496100      0.56713700      2.15675800
| 56> B         0.81869500      1.43771700      2.25810700
| 57> C         3.26051100      3.96438600      2.39504500
| 58> H         2.83279800      4.90100900      2.02862200
| 59> H         3.15086300      3.94276600      3.48030500
| 60> H         4.32665800      3.95510500      2.14702400
| 61> C         2.51263800      2.97498300      0.22399200
| 62> H        -0.11680700     -1.09227400      3.27755500
| 63> C        -2.22153200      1.03210500      4.73611200
| 64> H        -1.87656000     -1.05677500      5.23114400
| 65> H        -2.98493100      1.31622500      5.44873800
| 66> S        -1.64065500      2.15773800      3.60861000
| 67> C        -4.12798900      0.04105900      0.73540100
| 68> H        -4.79099300     -0.58709400      0.11435400
| 69> H        -4.75157000      0.72097200      1.32554100
| 70> H        -3.50137000      0.63996600      0.07599900
| 71> C        -4.11474000     -1.54206800      2.53242400
| 72> H        -4.69543900     -0.86255600      3.16577800
| 73> H        -4.83179900     -2.21188300      2.02376600
| 74> H        -3.47565400     -2.14842600      3.17918200
| 75> *
| 76> 
| 77> 
| 78>                          ****END OF INPUT****
================================================================================

                       *****************************
                       * Geometry Optimization Run *
                       *****************************

Geometry optimization settings:
Update method            Update   .... Bofill
Choice of coordinates    CoordSys .... (2022) Redundant Internals
Initial Hessian          InHess   .... Almloef's Model
Max. no of cycles        MaxIter  .... 153

Convergence Tolerances:
Energy Change            TolE     ....  5.0000e-06 Eh
Max. Gradient            TolMAXG  ....  3.0000e-04 Eh/bohr
RMS Gradient             TolRMSG  ....  1.0000e-04 Eh/bohr
Max. Displacement        TolMAXD  ....  4.0000e-03 bohr
RMS Displacement         TolRMSD  ....  2.0000e-03 bohr
Strict Convergence                .... False

------------------------------------------------------------------------------
                        ORCA OPTIMIZATION COORDINATE SETUP
------------------------------------------------------------------------------

The optimization will be done in redundant internal coordinates (2022)
Making redundant internal coordinates   ...  (2022 redundants) done
Following TS mode number                ...     0
Evaluating the initial hessian          ...  (Is done on the fly) done
Evaluating the coordinates              ...  done
Calculating the B-matrix                .... done
Calculating the G-matrix                .... done
The number of degrees of freedom        ....  261

    -----------------------------------------------------------------
                    Redundant Internal Coordinates


    -----------------------------------------------------------------
         Definition                    Initial Value    d2E/dq (diagonal element)
    -----------------------------------------------------------------
      1. B(C   1,C   0)                  1.4134         0.000000   
      2. B(C   2,C   1)                  1.3981         0.000000   
      3. B(C   3,C   2)                  1.3941         0.000000   
      4. B(C   4,C   3)                  1.3872         0.000000   
      5. B(C   5,C   0)                  1.3961         0.000000   
      6. B(C   5,C   4)                  1.3938         0.000000   
      7. B(H   6,C   2)                  1.0868         0.000000   
      8. B(H   7,C   3)                  1.0857         0.000000   
      9. B(H   8,C   4)                  1.0861         0.000000   
     10. B(H   9,C   5)                  1.0853         0.000000   
     11. B(N  10,C   0)                  1.4280         0.000000   
     12. B(B  11,C   1)                  1.5873         0.000000   
     13. B(H  16,C  15)                  1.0947         0.000000   
     14. B(H  17,C  15)                  1.0930         0.000000   
     15. B(H  18,C  15)                  1.0910         0.000000   
     16. B(H  20,C  19)                  1.0927         0.000000   
     17. B(H  21,C  19)                  1.0936         0.000000   
     18. B(H  22,C  19)                  1.0935         0.000000   
     19. B(C  23,B  11)                  1.9462         0.000000   
     20. B(C  24,C  23)                  1.3969         0.000000   
     21. B(C  25,C  24)                  1.4003         0.000000   
     22. B(H  26,B  11)                  1.1964         0.000000   
     23. B(H  27,B  11)                  1.2160         0.000000   
     24. B(C  29,C  28)                  1.5716         0.000000   
     25. B(C  29,C  19)                  1.5298         0.000000   
     26. B(C  29,C  15)                  1.5220         0.000000   
     27. B(O  30,C  28)                  1.4428         0.000000   
     28. B(O  31,C  29)                  1.4409         0.000000   
     29. B(B  32,O  31)                  1.3803         0.000000   
     30. B(B  32,O  30)                  1.3756         0.000000   
     31. B(B  32,C  23)                  1.5848         0.000000   
     32. B(C  33,C  28)                  1.5221         0.000000   
     33. B(H  34,C  33)                  1.0929         0.000000   
     34. B(H  35,C  33)                  1.0910         0.000000   
     35. B(H  36,C  33)                  1.0947         0.000000   
     36. B(C  37,C  28)                  1.5294         0.000000   
     37. B(C  37,H  14)                  1.0926         0.000000   
     38. B(C  37,H  13)                  1.0936         0.000000   
     39. B(C  37,H  12)                  1.0926         0.000000   
     40. B(H  38,C  24)                  1.0835         0.000000   
     41. B(C  39,C  25)                  1.3781         0.000000   
     42. B(H  40,C  25)                  1.0821         0.000000   
     43. B(H  41,C  39)                  1.0823         0.000000   
     44. B(S  42,C  39)                  1.6958         0.000000   
     45. B(S  42,C  23)                  1.7499         0.000000   
     46. B(C  43,N  10)                  1.4561         0.000000   
     47. B(H  44,C  43)                  1.1045         0.000000   
     48. B(H  45,C  43)                  1.0952         0.000000   
     49. B(H  46,C  43)                  1.0891         0.000000   
     50. B(C  47,N  10)                  1.4478         0.000000   
     51. B(H  48,C  47)                  1.0955         0.000000   
     52. B(H  49,C  47)                  1.1052         0.000000   
     53. B(H  50,C  47)                  1.0929         0.000000   
     54. A(C   1,C   0,N  10)          118.6014         0.000000   
     55. A(C   1,C   0,C   5)          120.2005         0.000000   
     56. A(C   5,C   0,N  10)          121.1518         0.000000   
     57. A(C   2,C   1,B  11)          119.1117         0.000000   
     58. A(C   0,C   1,C   2)          117.5141         0.000000   
     59. A(C   0,C   1,B  11)          123.2905         0.000000   
     60. A(C   1,C   2,H   6)          118.3139         0.000000   
     61. A(C   1,C   2,C   3)          122.4299         0.000000   
     62. A(C   3,C   2,H   6)          119.2132         0.000000   
     63. A(C   4,C   3,H   7)          120.5266         0.000000   
     64. A(C   2,C   3,H   7)          120.2932         0.000000   
     65. A(C   2,C   3,C   4)          119.1739         0.000000   
     66. A(C   3,C   4,H   8)          120.5099         0.000000   
     67. A(C   3,C   4,C   5)          119.9054         0.000000   
     68. A(C   5,C   4,H   8)          119.5842         0.000000   
     69. A(C   0,C   5,H   9)          120.0219         0.000000   
     70. A(C   0,C   5,C   4)          120.7720         0.000000   
     71. A(C   4,C   5,H   9)          119.2058         0.000000   
     72. A(C   0,N  10,C  47)          116.2158         0.000000   
     73. A(C  43,N  10,C  47)          111.1233         0.000000   
     74. A(C   0,N  10,C  43)          114.1358         0.000000   
     75. A(C   1,B  11,H  27)          112.0178         0.000000   
     76. A(C  23,B  11,H  26)          100.3896         0.000000   
     77. A(C   1,B  11,H  26)          121.9003         0.000000   
     78. A(C   1,B  11,C  23)          108.0390         0.000000   
     79. A(H  26,B  11,H  27)          110.4272         0.000000   
     80. A(C  23,B  11,H  27)          101.3060         0.000000   
     81. A(H  17,C  15,H  18)          108.1008         0.000000   
     82. A(H  16,C  15,C  29)          110.6208         0.000000   
     83. A(H  16,C  15,H  18)          108.8539         0.000000   
     84. A(H  17,C  15,C  29)          109.6212         0.000000   
     85. A(H  16,C  15,H  17)          108.1862         0.000000   
     86. A(H  18,C  15,C  29)          111.3677         0.000000   
     87. A(H  21,C  19,C  29)          111.7110         0.000000   
     88. A(H  22,C  19,C  29)          111.0359         0.000000   
     89. A(H  21,C  19,H  22)          108.7434         0.000000   
     90. A(H  20,C  19,H  22)          108.1030         0.000000   
     91. A(H  20,C  19,H  21)          108.4823         0.000000   
     92. A(H  20,C  19,C  29)          108.6663         0.000000   
     93. A(B  11,C  23,C  24)          113.2542         0.000000   
     94. A(C  24,C  23,B  32)          121.3689         0.000000   
     95. A(B  11,C  23,B  32)           77.1274         0.000000   
     96. A(B  32,C  23,S  42)          120.5218         0.000000   
     97. A(C  24,C  23,S  42)          108.4764         0.000000   
     98. A(B  11,C  23,S  42)          112.0638         0.000000   
     99. A(C  23,C  24,C  25)          114.7312         0.000000   
    100. A(C  25,C  24,H  38)          124.3842         0.000000   
    101. A(C  23,C  24,H  38)          120.8770         0.000000   
    102. A(C  39,C  25,H  40)          123.7592         0.000000   
    103. A(C  24,C  25,H  40)          124.7811         0.000000   
    104. A(C  24,C  25,C  39)          111.4565         0.000000   
    105. A(O  30,C  28,C  33)          108.3755         0.000000   
    106. A(C  29,C  28,C  33)          114.6912         0.000000   
    107. A(C  29,C  28,O  30)          102.1845         0.000000   
    108. A(C  33,C  28,C  37)          110.0452         0.000000   
    109. A(O  30,C  28,C  37)          107.7152         0.000000   
    110. A(C  29,C  28,C  37)          113.2220         0.000000   
    111. A(C  28,C  29,O  31)          102.7622         0.000000   
    112. A(C  19,C  29,O  31)          106.8067         0.000000   
    113. A(C  15,C  29,O  31)          108.7515         0.000000   
    114. A(C  19,C  29,C  28)          113.0059         0.000000   
    115. A(C  15,C  29,C  28)          114.6325         0.000000   
    116. A(C  15,C  29,C  19)          110.2501         0.000000   
    117. A(C  28,O  30,B  32)          106.2428         0.000000   
    118. A(C  29,O  31,B  32)          106.5505         0.000000   
    119. A(O  30,B  32,O  31)          113.5278         0.000000   
    120. A(C  23,B  32,O  31)          121.6361         0.000000   
    121. A(C  23,B  32,O  30)          121.4319         0.000000   
    122. A(H  35,C  33,H  36)          108.8505         0.000000   
    123. A(H  34,C  33,H  36)          108.2076         0.000000   
    124. A(C  28,C  33,H  36)          110.5879         0.000000   
    125. A(H  34,C  33,H  35)          108.1290         0.000000   
    126. A(C  28,C  33,H  35)          111.3928         0.000000   
    127. A(C  28,C  33,H  34)          109.5845         0.000000   
    128. A(H  13,C  37,H  14)          108.5956         0.000000   
    129. A(H  12,C  37,H  14)          107.9485         0.000000   
    130. A(H  12,C  37,H  13)          108.5379         0.000000   
    131. A(H  14,C  37,C  28)          111.6353         0.000000   
    132. A(H  13,C  37,C  28)          111.2966         0.000000   
    133. A(H  12,C  37,C  28)          108.7237         0.000000   
    134. A(H  41,C  39,S  42)          120.3411         0.000000   
    135. A(C  25,C  39,S  42)          112.8437         0.000000   
    136. A(C  25,C  39,H  41)          126.8110         0.000000   
    137. A(C  23,S  42,C  39)           92.4777         0.000000   
    138. A(H  45,C  43,H  46)          108.2072         0.000000   
    139. A(H  44,C  43,H  46)          108.5229         0.000000   
    140. A(N  10,C  43,H  46)          110.2324         0.000000   
    141. A(H  44,C  43,H  45)          108.3179         0.000000   
    142. A(N  10,C  43,H  45)          109.4421         0.000000   
    143. A(N  10,C  43,H  44)          112.0223         0.000000   
    144. A(H  49,C  47,H  50)          108.3910         0.000000   
    145. A(H  48,C  47,H  50)          108.1788         0.000000   
    146. A(N  10,C  47,H  50)          109.9531         0.000000   
    147. A(H  48,C  47,H  49)          107.3426         0.000000   
    148. A(N  10,C  47,H  49)          114.0021         0.000000   
    149. A(N  10,C  47,H  48)          108.7970         0.000000   
    150. D(C   2,C   1,C   0,N  10)    178.1796         0.000000   
    151. D(C   2,C   1,C   0,C   5)      0.6263         0.000000   
    152. D(B  11,C   1,C   0,N  10)      1.5419         0.000000   
    153. D(B  11,C   1,C   0,C   5)   -176.0113         0.000000   
    154. D(H   6,C   2,C   1,B  11)     -1.2933         0.000000   
    155. D(C   3,C   2,C   1,C   0)     -0.4803         0.000000   
    156. D(H   6,C   2,C   1,C   0)   -178.0765         0.000000   
    157. D(C   3,C   2,C   1,B  11)    176.3029         0.000000   
    158. D(H   7,C   3,C   2,H   6)     -1.6122         0.000000   
    159. D(H   7,C   3,C   2,C   1)   -179.1876         0.000000   
    160. D(C   4,C   3,C   2,C   1)     -0.0948         0.000000   
    161. D(C   4,C   3,C   2,H   6)    177.4806         0.000000   
    162. D(H   8,C   4,C   3,C   2)   -179.7382         0.000000   
    163. D(C   5,C   4,C   3,C   2)      0.5307         0.000000   
    164. D(C   5,C   4,C   3,H   7)    179.6214         0.000000   
    165. D(H   8,C   4,C   3,H   7)     -0.6476         0.000000   
    166. D(H   9,C   5,C   4,C   3)    179.4079         0.000000   
    167. D(H   9,C   5,C   4,H   8)     -0.3256         0.000000   
    168. D(C   0,C   5,C   4,H   8)    179.8851         0.000000   
    169. D(C   0,C   5,C   4,C   3)     -0.3814         0.000000   
    170. D(H   9,C   5,C   0,C   1)   -179.9989         0.000000   
    171. D(C   4,C   5,C   0,N  10)   -177.7011         0.000000   
    172. D(H   9,C   5,C   0,N  10)      2.5113         0.000000   
    173. D(C   4,C   5,C   0,C   1)     -0.2113         0.000000   
    174. D(C  43,N  10,C   0,C   5)   -103.8676         0.000000   
    175. D(C  47,N  10,C   0,C   5)     27.4939         0.000000   
    176. D(C  43,N  10,C   0,C   1)     78.6034         0.000000   
    177. D(C  47,N  10,C   0,C   1)   -150.0351         0.000000   
    178. D(C  23,B  11,C   1,C   2)   -104.0687         0.000000   
    179. D(H  26,B  11,C   1,C   0)    -42.7035         0.000000   
    180. D(C  23,B  11,C   1,C   0)     72.5180         0.000000   
    181. D(H  27,B  11,C   1,C   0)   -176.7436         0.000000   
    182. D(H  26,B  11,C   1,C   2)    140.7098         0.000000   
    183. D(B  32,C  23,B  11,H  26)   -117.4367         0.000000   
    184. D(B  32,C  23,B  11,C   1)    113.9005         0.000000   
    185. D(C  24,C  23,B  11,H  27)   -122.8314         0.000000   
    186. D(C  24,C  23,B  11,H  26)    123.6833         0.000000   
    187. D(B  32,C  23,B  11,H  27)     -3.9514         0.000000   
    188. D(C  24,C  23,B  11,C   1)     -4.9795         0.000000   
    189. D(H  38,C  24,C  23,B  32)    -33.5614         0.000000   
    190. D(H  38,C  24,C  23,B  11)     55.1774         0.000000   
    191. D(C  25,C  24,C  23,S  42)      1.2171         0.000000   
    192. D(C  25,C  24,C  23,B  32)    147.4025         0.000000   
    193. D(C  25,C  24,C  23,B  11)   -123.8587         0.000000   
    194. D(H  40,C  25,C  24,H  38)     -0.3198         0.000000   
    195. D(H  40,C  25,C  24,C  23)    178.6778         0.000000   
    196. D(C  39,C  25,C  24,H  38)   -179.6860         0.000000   
    197. D(C  39,C  25,C  24,C  23)     -0.6884         0.000000   
    198. D(C  15,C  29,C  28,C  33)    -96.1673         0.000000   
    199. D(C  15,C  29,C  28,O  30)    146.8170         0.000000   
    200. D(C  28,C  29,C  19,H  22)     49.9893         0.000000   
    201. D(C  28,C  29,C  19,H  20)    168.7610         0.000000   
    202. D(C  15,C  29,C  19,H  22)    179.7278         0.000000   
    203. D(C  15,C  29,C  19,H  21)     58.1477         0.000000   
    204. D(C  15,C  29,C  19,H  20)    -61.5005         0.000000   
    205. D(C  28,C  29,C  15,H  18)    -60.1277         0.000000   
    206. D(C  28,C  29,C  15,H  17)   -179.7097         0.000000   
    207. D(C  28,C  29,C  19,H  21)    -71.5908         0.000000   
    208. D(C  28,C  29,C  15,H  16)     61.0695         0.000000   
    209. D(C  19,C  29,C  15,H  18)    171.0112         0.000000   
    210. D(C  19,C  29,C  15,H  17)     51.4291         0.000000   
    211. D(C  15,C  29,C  28,C  37)     31.2615         0.000000   
    212. D(C  19,C  29,C  15,H  16)    -67.7917         0.000000   
    213. D(C  19,C  29,C  28,C  37)    158.7323         0.000000   
    214. D(C  19,C  29,C  28,C  33)     31.3035         0.000000   
    215. D(C  19,C  29,C  28,O  30)    -85.7123         0.000000   
    216. D(B  32,O  30,C  28,C  37)     93.6647         0.000000   
    217. D(B  32,O  30,C  28,C  33)   -147.3054         0.000000   
    218. D(B  32,O  30,C  28,C  29)    -25.8360         0.000000   
    219. D(B  32,O  31,C  29,C  28)    -21.4928         0.000000   
    220. D(B  32,O  31,C  29,C  19)     97.6521         0.000000   
    221. D(B  32,O  31,C  29,C  15)   -143.3768         0.000000   
    222. D(O  30,B  32,O  31,C  29)      6.0900         0.000000   
    223. D(C  23,B  32,O  31,C  29)   -153.3448         0.000000   
    224. D(O  31,B  32,O  30,C  28)     13.9305         0.000000   
    225. D(C  23,B  32,O  30,C  28)    173.4123         0.000000   
    226. D(O  31,B  32,C  23,C  24)     12.0139         0.000000   
    227. D(O  31,B  32,C  23,B  11)    -97.5585         0.000000   
    228. D(O  30,B  32,C  23,S  42)     -3.5966         0.000000   
    229. D(O  30,B  32,C  23,C  24)   -145.8099         0.000000   
    230. D(O  30,B  32,C  23,B  11)    104.6178         0.000000   
    231. D(H  35,C  33,C  28,C  37)    170.2445         0.000000   
    232. D(H  35,C  33,C  28,O  30)     52.6953         0.000000   
    233. D(H  35,C  33,C  28,C  29)    -60.7270         0.000000   
    234. D(H  34,C  33,C  28,C  37)     50.6354         0.000000   
    235. D(H  34,C  33,C  28,O  30)    -66.9139         0.000000   
    236. D(H  34,C  33,C  28,C  29)    179.6639         0.000000   
    237. D(H  13,C  37,C  28,C  33)     57.2753         0.000000   
    238. D(H  13,C  37,C  28,O  30)    175.2333         0.000000   
    239. D(H  13,C  37,C  28,C  29)    -72.5473         0.000000   
    240. D(H  12,C  37,C  28,C  33)    -62.2250         0.000000   
    241. D(H  12,C  37,C  28,O  30)     55.7331         0.000000   
    242. D(H  12,C  37,C  28,C  29)    167.9524         0.000000   
    243. D(S  42,C  39,C  25,H  40)   -179.5797         0.000000   
    244. D(S  42,C  39,C  25,C  24)     -0.2059         0.000000   
    245. D(H  41,C  39,C  25,H  40)     -0.3335         0.000000   
    246. D(H  41,C  39,C  25,C  24)    179.0403         0.000000   
    247. D(C  23,S  42,C  39,H  41)   -178.5289         0.000000   
    248. D(C  23,S  42,C  39,C  25)      0.7717         0.000000   
    249. D(C  39,S  42,C  23,B  32)   -147.6304         0.000000   
    250. D(C  39,S  42,C  23,C  24)     -1.1070         0.000000   
    251. D(C  39,S  42,C  23,B  11)    124.6675         0.000000   
    252. D(H  46,C  43,N  10,C   0)    -47.2858         0.000000   
    253. D(H  45,C  43,N  10,C  47)     60.0250         0.000000   
    254. D(H  45,C  43,N  10,C   0)   -166.1828         0.000000   
    255. D(H  44,C  43,N  10,C  47)    -60.1272         0.000000   
    256. D(H  44,C  43,N  10,C   0)     73.6650         0.000000   
    257. D(H  50,C  47,N  10,C   0)     46.0360         0.000000   
    258. D(H  49,C  47,N  10,C  43)     56.8468         0.000000   
    259. D(H  49,C  47,N  10,C   0)    -75.9068         0.000000   
    260. D(H  48,C  47,N  10,C  43)    -62.9047         0.000000   
    261. D(H  48,C  47,N  10,C   0)    164.3417         0.000000   
    -----------------------------------------------------------------

Number of atoms                         .... 51
Number of degrees of freedom            .... 261


         *************************************************************
         *                GEOMETRY OPTIMIZATION CYCLE   1            *
         *************************************************************
---------------------------------
CARTESIAN COORDINATES (ANGSTROEM)
---------------------------------
  C     -2.234946   -1.448244    0.976903
  C     -1.070948   -0.725406    0.630150
  C     -0.026692   -1.433207    0.027579
  C     -0.099269   -2.802464   -0.224443
  C     -1.245583   -3.496252    0.134503
  C     -2.309625   -2.820068    0.728928
  H      0.886741   -0.896805   -0.215508
  H      0.737931   -3.320128   -0.682456
  H     -1.323658   -4.564127   -0.047878
  H     -3.204881   -3.372294    0.996363
  N     -3.300288   -0.756407    1.629352
  B     -0.870510    0.814030    0.960924
  H      1.942021    3.878215   -0.004848
  H      3.520117    3.086849   -0.186515
  H      2.024990    2.133467   -0.273887
  C      4.102770    0.760915    1.236602
  H      4.992420    1.395110    1.168248
  H      4.409625   -0.217630    1.614727
  H      3.690042    0.623487    0.236073
  C      3.600509    1.351360    3.617346
  H      3.759869    0.311966    3.914585
  H      4.548483    1.888254    3.712056
  H      2.875515    1.794308    4.305796
  C     -0.568530    0.984636    2.876017
  C     -0.697817   -0.223871    3.564539
  C     -1.632492   -0.207039    4.607134
  H     -1.748069    1.612817    0.808879
  H      0.176205    1.243518    0.515343
  C      2.548721    2.788371    1.741578
  C      3.077982    1.374882    2.179710
  O      1.185451    2.762715    2.213290
  O      1.884961    0.567137    2.156758
  B      0.818695    1.437717    2.258107
  C      3.260511    3.964386    2.395045
  H      2.832798    4.901009    2.028622
  H      3.150863    3.942766    3.480305
  H      4.326658    3.955105    2.147024
  C      2.512638    2.974983    0.223992
  H     -0.116807   -1.092274    3.277555
  C     -2.221532    1.032105    4.736112
  H     -1.876560   -1.056775    5.231144
  H     -2.984931    1.316225    5.448738
  S     -1.640655    2.157738    3.608610
  C     -4.127989    0.041059    0.735401
  H     -4.790993   -0.587094    0.114354
  H     -4.751570    0.720972    1.325541
  H     -3.501370    0.639966    0.075999
  C     -4.114740   -1.542068    2.532424
  H     -4.695439   -0.862556    3.165778
  H     -4.831799   -2.211883    2.023766
  H     -3.475654   -2.148426    3.179182

----------------------------
CARTESIAN COORDINATES (A.U.)
----------------------------
  NO LB      ZA    FRAG     MASS         X           Y           Z
   0 C     6.0000    0    12.011   -4.223436   -2.736785    1.846079
   1 C     6.0000    0    12.011   -2.023798   -1.370819    1.190811
   2 C     6.0000    0    12.011   -0.050441   -2.708369    0.052117
   3 C     6.0000    0    12.011   -0.187591   -5.295889   -0.424136
   4 C     6.0000    0    12.011   -2.353811   -6.606959    0.254174
   5 C     6.0000    0    12.011   -4.364559   -5.329156    1.377474
   6 H     1.0000    0     1.008    1.675698   -1.694716   -0.407251
   7 H     1.0000    0     1.008    1.394487   -6.274133   -1.289655
   8 H     1.0000    0     1.008   -2.501351   -8.624950   -0.090476
   9 H     1.0000    0     1.008   -6.056347   -6.372712    1.882853
  10 N     7.0000    0    14.007   -6.236640   -1.429402    3.079029
  11 B     5.0000    0    10.810   -1.645025    1.538294    1.815883
  12 H     1.0000    0     1.008    3.669888    7.328764   -0.009161
  13 H     1.0000    0     1.008    6.652057    5.833299   -0.352462
  14 H     1.0000    0     1.008    3.826677    4.031668   -0.517571
  15 C     6.0000    0    12.011    7.753112    1.437921    2.336839
  16 H     1.0000    0     1.008    9.434307    2.636376    2.207669
  17 H     1.0000    0     1.008    8.332984   -0.411261    3.051392
  18 H     1.0000    0     1.008    6.973169    1.178220    0.446113
  19 C     6.0000    0    12.011    6.803976    2.553700    6.835793
  20 H     1.0000    0     1.008    7.105123    0.589530    7.397494
  21 H     1.0000    0     1.008    8.595387    3.568283    7.014769
  22 H     1.0000    0     1.008    5.433936    3.390751    8.136775
  23 C     6.0000    0    12.011   -1.074366    1.860692    5.434884
  24 C     6.0000    0    12.011   -1.318683   -0.423055    6.736003
  25 C     6.0000    0    12.011   -3.084963   -0.391247    8.706222
  26 H     1.0000    0     1.008   -3.303372    3.047782    1.528560
  27 H     1.0000    0     1.008    0.332979    2.349908    0.973857
  28 C     6.0000    0    12.011    4.816385    5.269258    3.291105
  29 C     6.0000    0    12.011    5.816543    2.598150    4.119055
  30 O     8.0000    0    15.999    2.240178    5.220775    4.182512
  31 O     8.0000    0    15.999    3.562060    1.071734    4.075682
  32 B     5.0000    0    10.810    1.547109    2.716891    4.267204
  33 C     6.0000    0    12.011    6.161473    7.491604    4.525979
  34 H     1.0000    0     1.008    5.353212    9.261565    3.833540
  35 H     1.0000    0     1.008    5.954268    7.450748    6.576823
  36 H     1.0000    0     1.008    8.176199    7.474065    4.057287
  37 C     6.0000    0    12.011    4.748198    5.621903    0.423284
  38 H     1.0000    0     1.008   -0.220733   -2.064099    6.193681
  39 C     6.0000    0    12.011   -4.198087    1.950396    8.949955
  40 H     1.0000    0     1.008   -3.546184   -1.997015    9.885430
  41 H     1.0000    0     1.008   -5.640702    2.487305   10.296623
  42 S    16.0000    0    32.060   -3.100389    4.077534    6.819285
  43 C     6.0000    0    12.011   -7.800769    0.077590    1.389706
  44 H     1.0000    0     1.008   -9.053665   -1.109447    0.216098
  45 H     1.0000    0     1.008   -8.979166    1.362440    2.504909
  46 H     1.0000    0     1.008   -6.616630    1.209360    0.143617
  47 C     6.0000    0    12.011   -7.775732   -2.914086    4.785588
  48 H     1.0000    0     1.008   -8.873094   -1.629995    5.982453
  49 H     1.0000    0     1.008   -9.130777   -4.179853    3.824363
  50 H     1.0000    0     1.008   -6.568034   -4.059937    6.007783

--------------------------------
INTERNAL COORDINATES (ANGSTROEM)
--------------------------------
 C      0   0   0     0.000000000000     0.00000000     0.00000000
 C      1   0   0     1.413373185417     0.00000000     0.00000000
 C      2   1   0     1.398050306383   117.51405108     0.00000000
 C      3   2   1     1.394147496308   122.42994330   359.51973884
 C      4   3   2     1.387162501820   119.17392283   359.90523427
 C      5   4   3     1.393826122673   119.90535353     0.53072304
 H      3   2   1     1.086820243031   118.31394751   181.92352397
 H      4   3   2     1.085659138526   120.29323017   180.81243112
 H      5   4   3     1.086147112693   120.50985827   180.26175603
 H      6   5   4     1.085337892012   119.20577375   179.40793775
 N      1   2   3     1.428034211472   118.60139317   178.17955438
 B      2   1   3     1.587277552609   123.29049973   183.36233352
 H     12   2   1     4.269926919301   137.05716850   188.53467621
 H     13  12   2     1.774725339330   106.78999525   327.97571582
 H     13  12   2     1.767317578135    49.97652159   349.22070393
 C     14  13  12     2.788317680332   120.36653917   330.99809860
 H     16  14  13     1.094692966014    69.79914697   217.16496042
 H     16  14  13     1.093018217449   169.12381425   135.93625601
 H     16  14  13     1.091003729145    63.76621858    92.74893392
 C     16  14  13     2.503763847427   104.28073946   307.20285675
 H     20  16  14     1.092742659530    90.29118815   172.82492302
 H     20  16  14     1.093562918177    91.38870500   281.32055250
 H     20  16  14     1.093518464974   145.80826692    48.74020226
 C     12   2   1     1.946247550104   108.03904859    72.51804602
 C     24  12   2     1.396877532893   113.25424252   355.02051838
 C     25  24  12     1.400323179082   114.73121023   236.14130792
 H     12   2   1     1.196364556427   121.90028871   317.29648374
 H     12   2   1     1.215983001908   112.01777066   183.25644317
 C     13  12   2     2.146124089565    68.76030902   271.98923049
 C     16  14  13     1.522037654494    80.73891772   333.28276927
 O     29  13  12     1.442801280212    90.45659073   319.26066070
 O     30  16  14     1.440929521444   108.75148918   111.21579991
 B     31  29  13     1.375550154312   106.24281071   117.14825089
 C     29  13  12     1.522062877944    95.11805848   210.76521726
 H     34  29  13     1.092916680002   109.58449469    25.27437645
 H     34  29  13     1.090999255684   111.39283136   144.88348675
 H     34  29  13     1.094655187267   110.58785131   266.07074186
 C     13  12   2     1.092611345407    72.74584808   316.89760858
 H     25  24  12     1.083538742623   120.87698102    55.17742122
 C     26  25  24     1.378071586972   111.45647716   359.31161166
 H     26  25  24     1.082131664087   124.78110048   178.67776310
 H     40  26  25     1.082283707480   126.81097905   179.04027505
 S     40  26  25     1.695797305052   112.84367187   359.79412159
 C     11   1   2     1.456087001851   114.13577504    78.60343622
 H     44  11   1     1.104468139710   112.02232830    73.66500253
 H     44  11   1     1.095171297437   109.44206888   193.81718828
 H     44  11   1     1.089106038645   110.23243936   312.71420321
 C     11   1   2     1.447803268545   116.21575533   209.96488194
 H     48  11   1     1.095483991695   108.79701033   164.34166551
 H     48  11   1     1.105241468942   114.00212391   284.09319046
 H     48  11   1     1.092884646303   109.95313706    46.03603858

---------------------------
INTERNAL COORDINATES (A.U.)
---------------------------
 C      0   0   0     0.000000000000     0.00000000     0.00000000
 C      1   0   0     2.670888245467     0.00000000     0.00000000
 C      2   1   0     2.641932200509   117.51405108     0.00000000
 C      3   2   1     2.634556958314   122.42994330   359.51973884
 C      4   3   2     2.621357231685   119.17392283   359.90523427
 C      5   4   3     2.633949650157   119.90535353     0.53072304
 H      3   2   1     2.053792616130   118.31394751   181.92352397
 H      4   3   2     2.051598446603   120.29323017   180.81243112
 H      5   4   3     2.052520584139   120.50985827   180.26175603
 H      6   5   4     2.050991378670   119.20577375   179.40793775
 N      1   2   3     2.698593569552   118.60139317   178.17955438
 B      2   1   3     2.999519872952   123.29049973   183.36233352
 H     12   2   1     8.068992489337   137.05716850   188.53467621
 H     13  12   2     3.353744854265   106.78999525   327.97571582
 H     13  12   2     3.339746214341    49.97652159   349.22070393
 C     14  13  12     5.269156790199   120.36653917   330.99809860
 H     16  14  13     2.068669906497    69.79914697   217.16496042
 H     16  14  13     2.065505090365   169.12381425   135.93625601
 H     16  14  13     2.061698259171    63.76621858    92.74893392
 C     16  14  13     4.731427975650   104.28073946   307.20285675
 H     20  16  14     2.064984361365    90.29118815   172.82492302
 H     20  16  14     2.066534425566    91.38870500   281.32055250
 H     20  16  14     2.066450421188   145.80826692    48.74020226
 C     12   2   1     3.677874858511   108.03904859    72.51804602
 C     24  12   2     2.639715979796   113.25424252   355.02051838
 C     25  24  12     2.646227307447   114.73121023   236.14130792
 H     12   2   1     2.260801367977   121.90028871   317.29648374
 H     12   2   1     2.297874857110   112.01777066   183.25644317
 C     13  12   2     4.055586778689    68.76030902   271.98923049
 C     16  14  13     2.876234332509    80.73891772   333.28276927
 O     29  13  12     2.726499285271    90.45659073   319.26066070
 O     30  16  14     2.722962173812   108.75148918   111.21579991
 B     31  29  13     2.599413075124   106.24281071   117.14825089
 C     29  13  12     2.876281997921    95.11805848   210.76521726
 H     34  29  13     2.065313212399   109.58449469    25.27437645
 H     34  29  13     2.061689805556   111.39283136   144.88348675
 H     34  29  13     2.068598515011   110.58785131   266.07074186
 C     13  12   2     2.064736213635    72.74584808   316.89760858
 H     25  24  12     2.047591479051   120.87698102    55.17742122
 C     26  25  24     2.604177892316   111.45647716   359.31161166
 H     26  25  24     2.044932485969   124.78110048   178.67776310
 H     40  26  25     2.045219806342   126.81097905   179.04027505
 S     40  26  25     3.204592485190   112.84367187   359.79412159
 C     11   1   2     2.751605660660   114.13577504    78.60343622
 H     44  11   1     2.087142307693   112.02232830    73.66500253
 H     44  11   1     2.069573821887   109.44206888   193.81718828
 H     44  11   1     2.058112143840   110.23243936   312.71420321
 C     11   1   2     2.735951673346   116.21575533   209.96488194
 H     48  11   1     2.070164728399   108.79701033   164.34166551
 H     48  11   1     2.088603688154   114.00212391   284.09319046
 H     48  11   1     2.065252677479   109.95313706    46.03603858

---------------------
BASIS SET INFORMATION
---------------------
There are 6 groups of distinct atoms

 Group   1 Type C   : 11s5p1d contracted to 4s3p1d pattern {6311/311/1}
 Group   2 Type H   : 4s1p contracted to 2s1p pattern {31/1}
 Group   3 Type N   : 11s5p1d contracted to 4s3p1d pattern {6311/311/1}
 Group   4 Type B   : 11s5p1d contracted to 4s3p1d pattern {6311/311/1}
 Group   5 Type O   : 11s5p1d contracted to 4s3p1d pattern {6311/311/1}
 Group   6 Type S   : 17s11p1d contracted to 5s4p1d pattern {66311/6311/1}

Atom   0C    basis set group =>   1
Atom   1C    basis set group =>   1
Atom   2C    basis set group =>   1
Atom   3C    basis set group =>   1
Atom   4C    basis set group =>   1
Atom   5C    basis set group =>   1
Atom   6H    basis set group =>   2
Atom   7H    basis set group =>   2
Atom   8H    basis set group =>   2
Atom   9H    basis set group =>   2
Atom  10N    basis set group =>   3
Atom  11B    basis set group =>   4
Atom  12H    basis set group =>   2
Atom  13H    basis set group =>   2
Atom  14H    basis set group =>   2
Atom  15C    basis set group =>   1
Atom  16H    basis set group =>   2
Atom  17H    basis set group =>   2
Atom  18H    basis set group =>   2
Atom  19C    basis set group =>   1
Atom  20H    basis set group =>   2
Atom  21H    basis set group =>   2
Atom  22H    basis set group =>   2
Atom  23C    basis set group =>   1
Atom  24C    basis set group =>   1
Atom  25C    basis set group =>   1
Atom  26H    basis set group =>   2
Atom  27H    basis set group =>   2
Atom  28C    basis set group =>   1
Atom  29C    basis set group =>   1
Atom  30O    basis set group =>   5
Atom  31O    basis set group =>   5
Atom  32B    basis set group =>   4
Atom  33C    basis set group =>   1
Atom  34H    basis set group =>   2
Atom  35H    basis set group =>   2
Atom  36H    basis set group =>   2
Atom  37C    basis set group =>   1
Atom  38H    basis set group =>   2
Atom  39C    basis set group =>   1
Atom  40H    basis set group =>   2
Atom  41H    basis set group =>   2
Atom  42S    basis set group =>   6
Atom  43C    basis set group =>   1
Atom  44H    basis set group =>   2
Atom  45H    basis set group =>   2
Atom  46H    basis set group =>   2
Atom  47C    basis set group =>   1
Atom  48H    basis set group =>   2
Atom  49H    basis set group =>   2
Atom  50H    basis set group =>   2
---------------------------------
AUXILIARY/J BASIS SET INFORMATION
---------------------------------
There are 6 groups of distinct atoms

 Group   1 Type C   : 12s5p4d2f1g contracted to 6s4p3d1f1g pattern {711111/2111/211/2/1}
 Group   2 Type H   : 5s2p1d contracted to 3s1p1d pattern {311/2/1}
 Group   3 Type N   : 12s5p4d2f1g contracted to 6s4p3d1f1g pattern {711111/2111/211/2/1}
 Group   4 Type B   : 12s5p4d2f1g contracted to 6s4p3d1f1g pattern {711111/2111/211/2/1}
 Group   5 Type O   : 12s5p4d2f1g contracted to 6s4p3d1f1g pattern {711111/2111/211/2/1}
 Group   6 Type S   : 14s5p5d2f1g contracted to 8s4p3d1f1g pattern {71111111/2111/311/2/1}

Atom   0C    basis set group =>   1
Atom   1C    basis set group =>   1
Atom   2C    basis set group =>   1
Atom   3C    basis set group =>   1
Atom   4C    basis set group =>   1
Atom   5C    basis set group =>   1
Atom   6H    basis set group =>   2
Atom   7H    basis set group =>   2
Atom   8H    basis set group =>   2
Atom   9H    basis set group =>   2
Atom  10N    basis set group =>   3
Atom  11B    basis set group =>   4
Atom  12H    basis set group =>   2
Atom  13H    basis set group =>   2
Atom  14H    basis set group =>   2
Atom  15C    basis set group =>   1
Atom  16H    basis set group =>   2
Atom  17H    basis set group =>   2
Atom  18H    basis set group =>   2
Atom  19C    basis set group =>   1
Atom  20H    basis set group =>   2
Atom  21H    basis set group =>   2
Atom  22H    basis set group =>   2
Atom  23C    basis set group =>   1
Atom  24C    basis set group =>   1
Atom  25C    basis set group =>   1
Atom  26H    basis set group =>   2
Atom  27H    basis set group =>   2
Atom  28C    basis set group =>   1
Atom  29C    basis set group =>   1
Atom  30O    basis set group =>   5
Atom  31O    basis set group =>   5
Atom  32B    basis set group =>   4
Atom  33C    basis set group =>   1
Atom  34H    basis set group =>   2
Atom  35H    basis set group =>   2
Atom  36H    basis set group =>   2
Atom  37C    basis set group =>   1
Atom  38H    basis set group =>   2
Atom  39C    basis set group =>   1
Atom  40H    basis set group =>   2
Atom  41H    basis set group =>   2
Atom  42S    basis set group =>   6
Atom  43C    basis set group =>   1
Atom  44H    basis set group =>   2
Atom  45H    basis set group =>   2
Atom  46H    basis set group =>   2
Atom  47C    basis set group =>   1
Atom  48H    basis set group =>   2
Atom  49H    basis set group =>   2
Atom  50H    basis set group =>   2


           ************************************************************
           *        Program running with 8 parallel MPI-processes     *
           *              working on a common directory               *
           ************************************************************
------------------------------------------------------------------------------
                             ORCA STARTUP CALCULATIONS
                           -- RI-GTO INTEGRALS CHOSEN --
------------------------------------------------------------------------------
------------------------------------------------------------------------------
                   ___                                                        
                  /   \      - P O W E R E D   B Y -                         
                 /     \                                                     
                 |  |  |   _    _      __       _____    __    __             
                 |  |  |  | |  | |    /  \     |  _  \  |  |  /  |          
                  \  \/   | |  | |   /    \    | | | |  |  | /  /          
                 / \  \   | |__| |  /  /\  \   | |_| |  |  |/  /          
                |  |  |   |  __  | /  /__\  \  |    /   |      \           
                |  |  |   | |  | | |   __   |  |    \   |  |\   \          
                \     /   | |  | | |  |  |  |  | |\  \  |  | \   \       
                 \___/    |_|  |_| |__|  |__|  |_| \__\ |__|  \__/        
                                                                              
                      - O R C A' S   B I G   F R I E N D -                    
                                      &                                       
                       - I N T E G R A L  F E E D E R -                       
                                                                              
 v1 FN, 2020, v2 2021, v3 2022-2024                                           
------------------------------------------------------------------------------


----------------------
SHARK INTEGRAL PACKAGE
----------------------

Number of atoms                             ...     51
Number of basis functions                   ...    571
Number of shells                            ...    275
Maximum angular momentum                    ...      2
Integral batch strategy                     ... SHARK/LIBINT Hybrid
RI-J (if used) integral strategy            ... SPLIT-RIJ (Revised 2003 algorithm where possible)
Printlevel                                  ...      1
Contraction scheme used                     ... SEGMENTED contraction
Prescreening option                         ... SCHWARTZ
   Thresh                                   ... 2.500e-11
   Tcut                                     ... 2.500e-12
   Tpresel                                  ... 2.500e-12 
Coulomb Range Separation                    ... NOT USED
Exchange Range Separation                   ... Long Range
   Mu parameter                             ... 2.500e-01
   Scaling (regular/separated)              ... 1.957e-01 8.043e-01
Robust (split-)RI terms used:
  metric    (central integrals)             ... YES
  density   (r.h.s.  integrals)             ... YES
  potential (l.h.s.  integrals)             ... YES
Multipole approximations                    ... NOT USED
Finite Nucleus Model                        ... NOT USED
CABS basis                                  ... NOT available
Auxiliary Coulomb fitting basis             ... AVAILABLE
   # of basis functions in Aux-J            ...   1475
   # of shells in Aux-J                     ...    497
   Maximum angular momentum in Aux-J        ...      4
Auxiliary J/K fitting basis                 ... NOT available
Auxiliary Correlation fitting basis         ... NOT available
Auxiliary 'external' fitting basis          ... NOT available

Checking pre-screening integrals            ... done (  0.0 sec) Dimension = 275
   => SHARK Basis and OBASIS are compatible. Storing Pre-screening
Shell pair information
Shell pair cut-off parameter TPreSel        ...   2.5e-12
Total number of shell pairs                 ...     37950
Shell pairs after pre-screening             ...     29834
Total number of primitive shell pairs       ...    154905
Primitive shell pairs kept                  ...     75818
          la=0 lb=0:   8957 shell pairs
          la=1 lb=0:  12130 shell pairs
          la=1 lb=1:   4174 shell pairs
          la=2 lb=0:   2586 shell pairs
          la=2 lb=1:   1796 shell pairs
          la=2 lb=2:    191 shell pairs

Checking whether 4 symmetric matrices of dimension 571 fit in memory
:Max Core in MB      =   3840.00
 MB in use           =     40.58
 MB left             =   3799.42
 MB needed           =      4.98
 Data fit in memory  = YES
Calculating RI/J V-Matrix + Cholesky decomp.... done (  0.1 sec)
Calculating Nuclear repulsion               ... done (  0.0 sec) ENN=   2331.589104871985 Eh

Diagonalization of the overlap matrix:
Smallest eigenvalue                        ... 9.371e-07
Time for diagonalization                   ...    0.081 sec
Threshold for overlap eigenvalues          ... 1.000e-07
Number of eigenvalues below threshold      ... 0

IMPORTANT:
Smallest eigenvalue of S below the DiffSThresh (1.000e-06) while
Thresh>1e-12 and/or TCut>1e-13! In order to avoid SCF convergence issues,
Thresh will be set to at least 1e-12 and TCut to at least 1e-13.
This can be turned off by adding %SCF DiffSThresh -1 END to the input.

Time for construction of square roots      ...    0.040 sec
Total time needed                          ...    0.126 sec

-------------------
DFT GRID GENERATION
-------------------

General Integration Accuracy     IntAcc      ... 4.388
Radial Grid Type                 RadialGrid  ... OptM3 with GC (2021)
Angular Grid (max. ang.)         AngularGrid ... 4 (Lebedev-302)
Angular grid pruning method      GridPruning ... 4 (adaptive)
Weight generation scheme         WeightScheme... mBecke (2022)
Basis function cutoff            BFCut       ... 1.0000e-11
Integration weight cutoff        WCut        ... 1.0000e-14
Partially contracted basis set               ... off
Rotationally invariant grid construction     ... off
Angular grids for H and He will be reduced by one unit
Diffuse basis detected: some atoms will have their outermost
                        angular grid increased by 1.

Total number of grid points                  ...   233480
Total number of batches                      ...     3675
Average number of points per batch           ...       63
Average number of grid points per atom       ...     4578

--------------------
COSX GRID GENERATION
--------------------

GRIDX 1
-------
General Integration Accuracy     IntAcc      ... 3.816
Radial Grid Type                 RadialGrid  ... OptM3 with GC (2021)
Angular Grid (max. ang.)         AngularGrid ... 1 (Lebedev-50)
Angular grid pruning method      GridPruning ... 4 (adaptive)
Weight generation scheme         WeightScheme... mBecke (2022)
Basis function cutoff            BFCut       ... 1.0000e-11
Integration weight cutoff        WCut        ... 1.0000e-14
Partially contracted basis set               ... on
Rotationally invariant grid construction     ... off
Angular grids for H and He will be reduced by one unit
Diffuse basis detected: some atoms will have their outermost
                        angular grid increased by 1.

Total number of grid points                  ...    30784
Total number of batches                      ...      266
Average number of points per batch           ...      115
Average number of grid points per atom       ...      604
UseSFitting                                  ... on

GRIDX 2
-------
General Integration Accuracy     IntAcc      ... 4.020
Radial Grid Type                 RadialGrid  ... OptM3 with GC (2021)
Angular Grid (max. ang.)         AngularGrid ... 2 (Lebedev-110)
Angular grid pruning method      GridPruning ... 4 (adaptive)
Weight generation scheme         WeightScheme... mBecke (2022)
Basis function cutoff            BFCut       ... 1.0000e-11
Integration weight cutoff        WCut        ... 1.0000e-14
Partially contracted basis set               ... on
Rotationally invariant grid construction     ... off
Angular grids for H and He will be reduced by one unit
Diffuse basis detected: some atoms will have their outermost
                        angular grid increased by 1.

Total number of grid points                  ...    65819
Total number of batches                      ...      541
Average number of points per batch           ...      121
Average number of grid points per atom       ...     1291
UseSFitting                                  ... on

GRIDX 3
-------
General Integration Accuracy     IntAcc      ... 4.338
Radial Grid Type                 RadialGrid  ... OptM3 with GC (2021)
Angular Grid (max. ang.)         AngularGrid ... 3 (Lebedev-194)
Angular grid pruning method      GridPruning ... 4 (adaptive)
Weight generation scheme         WeightScheme... mBecke (2022)
Basis function cutoff            BFCut       ... 1.0000e-11
Integration weight cutoff        WCut        ... 1.0000e-14
Partially contracted basis set               ... on
Rotationally invariant grid construction     ... off
Angular grids for H and He will be reduced by one unit
Diffuse basis detected: some atoms will have their outermost
                        angular grid increased by 1.

Total number of grid points                  ...   142427
Total number of batches                      ...     1140
Average number of points per batch           ...      124
Average number of grid points per atom       ...     2793
UseSFitting                                  ... on
Grids setup in   5.5 sec
Initializing property integral containers    ... done (  0.0 sec)

SHARK setup successfully completed in   6.2 seconds

Maximum memory used throughout the entire STARTUP-calculation: 85.4 MB


           ************************************************************
           *        Program running with 8 parallel MPI-processes     *
           *              working on a common directory               *
           ************************************************************
-------------------------------------------------------------------------------
                                 ORCA GUESS
                   Start orbitals & Density for SCF / CASSCF
-------------------------------------------------------------------------------

------------
SCF SETTINGS
------------
Hamiltonian:
 Density Functional     Method          .... DFT(GTOs)
 Exchange Functional    Exchange        .... WB97X-D3
 Correlation Functional Correlation     .... WB97X-D3
 Gradients option       PostSCFGGA      .... off
 Hybrid DFT is turned on
   Fraction HF Exchange ScalHFX         ....  0.195728
   Scaling of DF-GGA-X  ScalDFX         ....  0.000000
   Scaling of DF-GGA-C  ScalDFC         ....  1.000000
   Scaling of DF-LDA-C  ScalLDAC        ....  1.000000
   Perturbative correction              ....  0.000000
 Long-range corrected/Screened/Range-Separated Hybrid DFT is turned on
   Amount of maximum screened exact exchange              ....  0.804272
   Range separation parameter mu (erf(mu*r12)/r12)        ....  0.250000
 RI-approximation to the Coulomb term is turned on
   Number of AuxJ basis functions       .... 1475
   RIJ-COSX (HFX calculated with COS-X)).... on


General Settings:
 Integral files         IntName         .... input
 Hartree-Fock type      HFTyp           .... RHF
 Total Charge           Charge          ....    0
 Multiplicity           Mult            ....    1
 Number of Electrons    NEL             ....  184
 Basis Dimension        Dim             ....  571
 Nuclear Repulsion      ENuc            ....   2331.5891048720 Eh

Convergence Acceleration:
 AO-DIIS                CNVDIIS         .... on
   Start iteration      DIISMaxIt       ....    12
   Startup error        DIISStart       ....  0.200000
   # of expansion vecs  DIISMaxEq       ....     5
   Bias factor          DIISBfac        ....   1.050
   Max. coefficient     DIISMaxC        ....  10.000
 MO-DIIS                CNVKDIIS        .... off
 Trust-Rad. Augm. Hess. CNVTRAH         .... auto
   Auto Start mean grad. ratio tolernc. ....  1.125000
   Auto Start start iteration           ....    50
   Auto Start num. interpolation iter.  ....    10
   Max. Number of Micro iterations      ....    24
   Max. Number of Macro iterations      .... Maxiter - #DIIS iter
   Number of Davidson start vectors     ....     2
   Converg. threshold    (grad. norm)   ....   1.000e-05
   Grad. Scal. Fac. for Micro threshold ....   0.100
   Minimum threshold for Micro iter.    ....   1.000e-02
   NR start threshold (gradient norm)   ....   1.000e-04
   Initial trust radius                 ....   0.400
   Minimum AH scaling param. (alpha)    ....   1.000
   Maximum AH scaling param. (alpha)    .... 1000.000
   Quad. conv. algorithm                .... NR
   White noise on init. David. guess    .... on
   Maximum white noise                  ....   0.010
   Pseudo random numbers                .... off
   Inactive MOs                         .... canonical
   Orbital update algorithm             .... Taylor
   Preconditioner                       .... Diag
   Full preconditioner red. dimension   ....   250
 SOSCF                 CNVSOSCF           .... on
   Start iteration     SOSCFMaxIt         ....   150
   Startup grad/error  SOSCFStart         ....  0.003300
   Hessian update      SOSCFHessUp        .... L-BFGS
   Autom. constraints  SOSCFAutoConstrain .... off
 Level Shifting         CNVShift        .... on
   Level shift para.    LevelShift      ....    0.2500
   Turn off err/grad.   ShiftErr        ....    0.0010
 Zerner damping         CNVZerner       .... off
 Static damping         CNVDamp         .... on
   Fraction old density DampFac         ....    0.7000
   Max. Damping (<1)    DampMax         ....    0.9800
   Min. Damping (>=0)   DampMin         ....    0.0000
   Turn off err/grad.   DampErr         ....    0.1000

SCF Procedure:
 Maximum # iterations   MaxIter         ....   125
 SCF integral mode      SCFMode         .... Direct
   Integral package                     .... SHARK and LIBINT hybrid scheme
 Reset frequency        DirectResetFreq ....    20
 Integral Threshold     Thresh          ....  1.000e-12 Eh
 Primitive CutOff       TCut            ....  1.000e-13 Eh

Convergence Tolerance:
 Convergence Check Mode ConvCheckMode   .... Total+1el-Energy
 Convergence forced     ConvForced      .... 0
 Energy Change          TolE            ....  1.000e-08 Eh
 1-El. energy change                    ....  1.000e-05 Eh
 Orbital Gradient       TolG            ....  1.000e-05
 Orbital Rotation angle TolX            ....  1.000e-05
 DIIS Error             TolErr          ....  5.000e-07

------------------------------
INITIAL GUESS: MODEL POTENTIAL
------------------------------
Loading Hartree-Fock densities                     ... done
Calculating cut-offs                               ... done
Initializing the effective Hamiltonian             ... done
Setting up the integral package (SHARK)            ... done
Starting the Coulomb interaction                   ... done (   0.9 sec)
Making the grid                                    ... done (   0.7 sec)
Mapping shells                                     ... done
Starting the XC term evaluation                    ... done (   0.5 sec)
  promolecular density results
     # of electrons  =    183.990334982
     EX              =   -155.491917002
     EC              =     -6.229257967
     EX+EC           =   -161.721174970
Transforming the Hamiltonian                       ... done (   0.0 sec)
Diagonalizing the Hamiltonian                      ... done (   0.1 sec)
Back transforming the eigenvectors                 ... done (   0.0 sec)
Now organizing SCF variables                       ... done
                      ------------------
                      INITIAL GUESS DONE (   2.4 sec)
                      ------------------
             **** ENERGY FILE WAS UPDATED (input.en.tmp) ****
Finished Guess after   2.7 sec
Maximum memory used throughout the entire GUESS-calculation: 50.9 MB


           ************************************************************
           *        Program running with 8 parallel MPI-processes     *
           *              working on a common directory               *
           ************************************************************

-------------------------------------------------------------------------------------------
                                      ORCA LEAN-SCF
                              memory conserving SCF solver
-------------------------------------------------------------------------------------------

----------------------------------------D-I-I-S--------------------------------------------
Iteration    Energy (Eh)           Delta-E    RMSDP     MaxDP     DIISErr   Damp  Time(sec)
-------------------------------------------------------------------------------------------
               ***  Starting incremental Fock matrix formation  ***
    1    -1354.4446374575954906     0.00e+00  4.14e-02  1.90e+00  1.94e-01  0.700  41.5
    2    -1354.7072709474105068    -2.63e-01  3.23e-02  1.68e+00  9.86e-02  0.700  20.1
                               ***Turning on AO-DIIS***
    3    -1354.8413619960265351    -1.34e-01  2.50e-02  1.27e+00  4.97e-02  0.700  19.3
    4    -1354.9207923606245458    -7.94e-02  6.40e-02  3.40e+00  3.09e-02  0.000  18.9
    5    -1355.0916569947803509    -1.71e-01  9.37e-03  6.06e-01  4.05e-03  0.000  19.5
                              *** Initializing SOSCF ***
---------------------------------------S-O-S-C-F--------------------------------------
Iteration    Energy (Eh)           Delta-E    RMSDP     MaxDP     MaxGrad    Time(sec)
--------------------------------------------------------------------------------------
    6    -1355.0922943767282050    -6.37e-04  4.43e-03  2.40e-01  2.66e-03    18.2
               *** Restarting incremental Fock matrix formation ***
    7    -1355.0925608198863301    -2.66e-04  2.87e-03  1.69e-01  2.74e-03    40.4
    8    -1355.0926864787065824    -1.26e-04  2.91e-03  1.24e-01  1.06e-03    32.8
    9    -1355.0927183620328833    -3.19e-05  1.08e-03  6.06e-02  4.33e-04    33.0
   10    -1355.0927341212409374    -1.58e-05  3.09e-04  1.49e-02  1.42e-04    31.6
   11    -1355.0927348277855344    -7.07e-07  9.50e-05  3.57e-03  2.57e-05    28.9
   12    -1355.0927349433586642    -1.16e-07  5.14e-05  1.67e-03  2.59e-05    26.5
   13    -1355.0927349799667354    -3.66e-08  6.03e-05  2.18e-03  4.29e-06    25.1
   14    -1355.0927349588200741     2.11e-08  4.98e-05  2.12e-03  2.74e-06    23.7
   15    -1355.0927349412445437     1.76e-08  8.08e-05  4.83e-03  1.07e-06    22.3
                  *** Gradient check signals convergence ***

               *****************************************************
               *                     SUCCESS                       *
               *           SCF CONVERGED AFTER  15 CYCLES          *
               *****************************************************

Recomputing exchange energy using gridx3       ... done (   76.866 sec)
Old exchange energy                            :    -50.806690349 Eh
New exchange energy                            :    -50.806782324 Eh
Exchange energy change after final integration :     -0.000091975 Eh
Total energy after final integration           :  -1355.092826947 Eh
             **** ENERGY FILE WAS UPDATED (input.en.tmp) ****

----------------
TOTAL SCF ENERGY
----------------

Total Energy       :      -1355.09282694715057 Eh          -36873.95046 eV

Components:
Nuclear Repulsion  :       2331.58910487198455 Eh           63445.76506 eV
Electronic Energy  :      -3686.68183984375491 Eh         -100319.71302 eV
One Electron Energy:      -6484.83215351712442 Eh         -176461.25401 eV
Two Electron Energy:       2798.15031367336951 Eh           76141.54100 eV

Virial components:
Potential Energy   :      -2702.74881524564444 Eh          -73545.53425 eV
Kinetic Energy     :       1347.65598829849409 Eh           36671.58379 eV
Virial Ratio       :          2.00551835090945

DFT components:
N(Alpha)           :       91.999847814974 electrons
N(Beta)            :       91.999847814974 electrons
N(Total)           :      183.999695629947 electrons
E(XC)              :     -114.876905956232 Eh       

---------------
SCF CONVERGENCE
---------------

  Last Energy change         ...   -1.7576e-08  Tolerance :   1.0000e-08
  Last MAX-Density change    ...    4.8307e-03  Tolerance :   1.0000e-07
  Last RMS-Density change    ...    8.0763e-05  Tolerance :   5.0000e-09
  Last DIIS Error            ...    2.6616e-03  Tolerance :   5.0000e-07
  Last Orbital Gradient      ...    1.0695e-06  Tolerance :   1.0000e-05
  Last Orbital Rotation      ...    4.4795e-06  Tolerance :   1.0000e-05


----------------
ORBITAL ENERGIES
----------------

  NO   OCC          E(Eh)            E(eV) 
   0   2.0000     -89.005678     -2421.9676 
   1   2.0000     -19.252424      -523.8851 
   2   2.0000     -19.249924      -523.8171 
   3   2.0000     -14.430010      -392.6605 
   4   2.0000     -10.353306      -281.7278 
   5   2.0000     -10.352869      -281.7159 
   6   2.0000     -10.350780      -281.6590 
   7   2.0000     -10.327473      -281.0248 
   8   2.0000     -10.315495      -280.6989 
   9   2.0000     -10.312079      -280.6059 
  10   2.0000     -10.308758      -280.5156 
  11   2.0000     -10.302432      -280.3434 
  12   2.0000     -10.294863      -280.1375 
  13   2.0000     -10.280940      -279.7586 
  14   2.0000     -10.280483      -279.7462 
  15   2.0000     -10.280301      -279.7412 
  16   2.0000     -10.278533      -279.6931 
  17   2.0000     -10.275729      -279.6168 
  18   2.0000     -10.275727      -279.6167 
  19   2.0000     -10.273835      -279.5653 
  20   2.0000     -10.273321      -279.5513 
  21   2.0000     -10.256074      -279.0820 
  22   2.0000      -8.098066      -220.3596 
  23   2.0000      -6.900686      -187.7772 
  24   2.0000      -6.815921      -185.4706 
  25   2.0000      -6.052216      -164.6892 
  26   2.0000      -6.047520      -164.5614 
  27   2.0000      -6.045883      -164.5168 
  28   2.0000      -1.182700       -32.1829 
  29   2.0000      -1.111623       -30.2488 
  30   2.0000      -1.045380       -28.4462 
  31   2.0000      -1.021379       -27.7931 
  32   2.0000      -0.950028       -25.8516 
  33   2.0000      -0.927613       -25.2416 
  34   2.0000      -0.873573       -23.7711 
  35   2.0000      -0.868194       -23.6248 
  36   2.0000      -0.865253       -23.5447 
  37   2.0000      -0.845665       -23.0117 
  38   2.0000      -0.844589       -22.9824 
  39   2.0000      -0.824342       -22.4315 
  40   2.0000      -0.814868       -22.1737 
  41   2.0000      -0.794780       -21.6271 
  42   2.0000      -0.749802       -20.4031 
  43   2.0000      -0.739200       -20.1147 
  44   2.0000      -0.707784       -19.2598 
  45   2.0000      -0.692822       -18.8527 
  46   2.0000      -0.685247       -18.6465 
  47   2.0000      -0.670171       -18.2363 
  48   2.0000      -0.658759       -17.9257 
  49   2.0000      -0.648418       -17.6444 
  50   2.0000      -0.632888       -17.2217 
  51   2.0000      -0.617654       -16.8072 
  52   2.0000      -0.590569       -16.0702 
  53   2.0000      -0.577145       -15.7049 
[...]
126:   2487.81   0.049455  249.92  0.006203  ( 0.063576  0.045459 -0.009751)
127:   2615.44   0.020452  103.36  0.002440  (-0.036692  0.029503 -0.014954)
128:   2974.39   0.015291   77.27  0.001604  ( 0.029192  0.025701 -0.009569)
129:   2983.01   0.031577  159.58  0.003303  (-0.050783 -0.005795 -0.026286)
130:   3073.85   0.001849    9.35  0.000188  (-0.001970 -0.000851  0.013533)
131:   3077.21   0.004353   22.00  0.000441  ( 0.007346  0.010054  0.016922)
132:   3078.45   0.002674   13.51  0.000271  ( 0.011873 -0.010067  0.005358)
133:   3082.26   0.006421   32.45  0.000650  ( 0.021052  0.011097 -0.009152)
134:   3093.09   0.007370   37.24  0.000744  ( 0.005182 -0.011021 -0.024397)
135:   3105.07   0.006858   34.66  0.000689  (-0.010092  0.021807  0.010573)
136:   3154.10   0.004540   22.95  0.000449  (-0.017406  0.011041 -0.004933)
137:   3156.60   0.000496    2.51  0.000049  ( 0.000647  0.006942 -0.000655)
138:   3157.55   0.002129   10.76  0.000210  ( 0.004524 -0.013747  0.001002)
139:   3163.13   0.002828   14.29  0.000279  ( 0.015937  0.000794 -0.004940)
140:   3165.45   0.004242   21.44  0.000418  ( 0.006471 -0.019272  0.002210)
141:   3166.97   0.008451   42.71  0.000833  ( 0.027673  0.007722 -0.002710)
142:   3171.19   0.005115   25.85  0.000503  ( 0.002082 -0.022280  0.001606)
143:   3183.16   0.002768   13.99  0.000271  ( 0.005367  0.004648 -0.014866)
144:   3183.97   0.004117   20.81  0.000404  (-0.011148 -0.001934 -0.016599)
145:   3195.42   0.001687    8.52  0.000165  (-0.008827 -0.002447  0.008991)
146:   3197.94   0.000893    4.51  0.000087  ( 0.007924  0.004679 -0.001562)
147:   3207.16   0.002435   12.31  0.000237  ( 0.006383  0.014000 -0.000434)
148:   3223.88   0.005972   30.18  0.000578  ( 0.021184 -0.003194 -0.010915)
149:   3232.86   0.004663   23.57  0.000450  (-0.001233 -0.019968 -0.007065)
150:   3251.25   0.000109    0.55  0.000010  ( 0.000817  0.002113 -0.002306)
151:   3264.53   0.000270    1.36  0.000026  (-0.002118 -0.001751  0.004268)
152:   3280.11   0.000113    0.57  0.000011  ( 0.000536  0.002688 -0.001791)

* The epsilon (eps) is given for a Dirac delta lineshape.
** The dipole moment derivative (T) already includes vibrational overlap.

The first frequency considered to be a vibration is 8
The total number of vibrations considered is 145


--------------------------
THERMOCHEMISTRY AT 298.15K
--------------------------

Temperature         ...   298.15 K
Pressure            ...     1.00 atm
Total Mass          ...   343.10 AMU
Quasi RRHO          ...     True
Cut-Off Frequency   ...     1.00 cm^-1

Throughout the following assumptions are being made:
  (1) The electronic state is orbitally nondegenerate
  (2) There are no thermally accessible electronically excited states
  (3) Hindered rotations indicated by low frequency modes are not
      treated as such but are treated as vibrations and this may
      cause some error
  (4) All equations used are the standard statistical mechanics
      equations for an ideal gas
  (5) All vibrations are strictly harmonic

freq.      27.85  E(vib)   ...       0.55 
freq.      45.60  E(vib)   ...       0.53 
freq.      55.71  E(vib)   ...       0.52 
freq.      63.94  E(vib)   ...       0.51 
freq.      84.36  E(vib)   ...       0.48 
freq.     100.94  E(vib)   ...       0.46 
freq.     110.54  E(vib)   ...       0.45 
freq.     126.59  E(vib)   ...       0.43 
freq.     130.19  E(vib)   ...       0.43 
freq.     142.15  E(vib)   ...       0.41 
freq.     162.12  E(vib)   ...       0.39 
freq.     208.39  E(vib)   ...       0.34 
freq.     227.28  E(vib)   ...       0.33 
freq.     236.54  E(vib)   ...       0.32 
freq.     248.08  E(vib)   ...       0.31 
freq.     259.78  E(vib)   ...       0.30 
freq.     272.82  E(vib)   ...       0.29 
freq.     285.23  E(vib)   ...       0.28 
freq.     302.40  E(vib)   ...       0.26 
freq.     305.36  E(vib)   ...       0.26 
freq.     307.06  E(vib)   ...       0.26 
freq.     314.20  E(vib)   ...       0.25 
freq.     322.89  E(vib)   ...       0.25 
freq.     337.23  E(vib)   ...       0.24 
freq.     357.61  E(vib)   ...       0.22 
freq.     372.45  E(vib)   ...       0.21 
freq.     376.13  E(vib)   ...       0.21 
freq.     392.12  E(vib)   ...       0.20 
freq.     399.23  E(vib)   ...       0.19 
freq.     428.38  E(vib)   ...       0.18 
freq.     480.87  E(vib)   ...       0.15 
freq.     486.58  E(vib)   ...       0.15 
freq.     500.59  E(vib)   ...       0.14 
freq.     512.32  E(vib)   ...       0.14 
freq.     532.10  E(vib)   ...       0.13 
freq.     538.36  E(vib)   ...       0.12 
freq.     569.44  E(vib)   ...       0.11 
freq.     578.89  E(vib)   ...       0.11 
freq.     589.46  E(vib)   ...       0.10 
freq.     598.59  E(vib)   ...       0.10 
freq.     607.21  E(vib)   ...       0.10 
freq.     655.43  E(vib)   ...       0.08 
freq.     684.54  E(vib)   ...       0.07 
freq.     732.50  E(vib)   ...       0.06 
freq.     758.56  E(vib)   ...       0.06 
freq.     765.14  E(vib)   ...       0.06 
freq.     769.35  E(vib)   ...       0.06 
freq.     788.08  E(vib)   ...       0.05 
freq.     794.51  E(vib)   ...       0.05 
freq.     799.75  E(vib)   ...       0.05 
freq.     826.45  E(vib)   ...       0.04 
freq.     876.92  E(vib)   ...       0.04 
freq.     894.13  E(vib)   ...       0.03 
freq.     900.04  E(vib)   ...       0.03 
freq.     908.50  E(vib)   ...       0.03 
freq.     913.85  E(vib)   ...       0.03 
freq.     946.88  E(vib)   ...       0.03 
freq.     949.07  E(vib)   ...       0.03 
freq.     958.01  E(vib)   ...       0.03 
freq.     975.12  E(vib)   ...       0.03 
freq.     981.12  E(vib)   ...       0.02 
freq.     985.92  E(vib)   ...       0.02 
freq.     987.34  E(vib)   ...       0.02 
freq.     993.84  E(vib)   ...       0.02 
freq.    1011.79  E(vib)   ...       0.02 
freq.    1015.06  E(vib)   ...       0.02 
freq.    1016.96  E(vib)   ...       0.02 
freq.    1034.35  E(vib)   ...       0.02 
freq.    1083.90  E(vib)   ...       0.02 
freq.    1086.76  E(vib)   ...       0.02 
freq.    1104.74  E(vib)   ...       0.02 
freq.    1113.28  E(vib)   ...       0.01 
freq.    1119.58  E(vib)   ...       0.01 
freq.    1124.94  E(vib)   ...       0.01 
freq.    1147.27  E(vib)   ...       0.01 
freq.    1153.97  E(vib)   ...       0.01 
freq.    1176.30  E(vib)   ...       0.01 
freq.    1186.50  E(vib)   ...       0.01 
freq.    1191.95  E(vib)   ...       0.01 
freq.    1193.40  E(vib)   ...       0.01 
freq.    1204.90  E(vib)   ...       0.01 
freq.    1207.08  E(vib)   ...       0.01 
freq.    1241.29  E(vib)   ...       0.01 
freq.    1255.02  E(vib)   ...       0.01 
freq.    1263.21  E(vib)   ...       0.01 
freq.    1264.83  E(vib)   ...       0.01 
freq.    1288.63  E(vib)   ...       0.01 
freq.    1307.38  E(vib)   ...       0.01 
freq.    1315.05  E(vib)   ...       0.01 
freq.    1330.12  E(vib)   ...       0.01 
freq.    1336.22  E(vib)   ...       0.01 
freq.    1340.27  E(vib)   ...       0.01 
freq.    1370.45  E(vib)   ...       0.01 
freq.    1381.89  E(vib)   ...       0.01 
freq.    1416.62  E(vib)   ...       0.00 
freq.    1419.60  E(vib)   ...       0.00 
freq.    1426.77  E(vib)   ...       0.00 
freq.    1436.44  E(vib)   ...       0.00 
freq.    1449.69  E(vib)   ...       0.00 
freq.    1475.20  E(vib)   ...       0.00 
freq.    1476.09  E(vib)   ...       0.00 
freq.    1479.01  E(vib)   ...       0.00 
freq.    1488.19  E(vib)   ...       0.00 
freq.    1489.39  E(vib)   ...       0.00 
freq.    1491.07  E(vib)   ...       0.00 
freq.    1491.97  E(vib)   ...       0.00 
freq.    1495.22  E(vib)   ...       0.00 
freq.    1502.56  E(vib)   ...       0.00 
freq.    1507.32  E(vib)   ...       0.00 
freq.    1510.60  E(vib)   ...       0.00 
freq.    1514.65  E(vib)   ...       0.00 
freq.    1517.46  E(vib)   ...       0.00 
freq.    1527.80  E(vib)   ...       0.00 
freq.    1532.15  E(vib)   ...       0.00 
freq.    1541.38  E(vib)   ...       0.00 
freq.    1553.63  E(vib)   ...       0.00 
freq.    1654.85  E(vib)   ...       0.00 
freq.    1677.55  E(vib)   ...       0.00 
freq.    2487.81  E(vib)   ...       0.00 
freq.    2615.44  E(vib)   ...       0.00 
freq.    2974.39  E(vib)   ...       0.00 
freq.    2983.01  E(vib)   ...       0.00 
freq.    3073.85  E(vib)   ...       0.00 
freq.    3077.21  E(vib)   ...       0.00 
freq.    3078.45  E(vib)   ...       0.00 
freq.    3082.26  E(vib)   ...       0.00 
freq.    3093.09  E(vib)   ...       0.00 
freq.    3105.07  E(vib)   ...       0.00 
freq.    3154.10  E(vib)   ...       0.00 
freq.    3156.60  E(vib)   ...       0.00 
freq.    3157.55  E(vib)   ...       0.00 
freq.    3163.13  E(vib)   ...       0.00 
freq.    3165.45  E(vib)   ...       0.00 
freq.    3166.97  E(vib)   ...       0.00 
freq.    3171.19  E(vib)   ...       0.00 
freq.    3183.16  E(vib)   ...       0.00 
freq.    3183.97  E(vib)   ...       0.00 
freq.    3195.42  E(vib)   ...       0.00 
freq.    3197.94  E(vib)   ...       0.00 
freq.    3207.16  E(vib)   ...       0.00 
freq.    3223.88  E(vib)   ...       0.00 
freq.    3232.86  E(vib)   ...       0.00 
freq.    3251.25  E(vib)   ...       0.00 
freq.    3264.53  E(vib)   ...       0.00 
freq.    3280.11  E(vib)   ...       0.00 

------------
INNER ENERGY
------------

The inner energy is: U= E(el) + E(ZPE) + E(vib) + E(rot) + E(trans)
    E(el)   - is the total energy from the electronic structure calculation
              = E(kin-el) + E(nuc-el) + E(el-el) + E(nuc-nuc)
    E(ZPE)  - the the zero temperature vibrational energy from the frequency calculation
    E(vib)  - the the finite temperature correction to E(ZPE) due to population
              of excited vibrational states
    E(rot)  - is the rotational thermal energy
    E(trans)- is the translational thermal energy

Summary of contributions to the inner energy U:
Electronic energy                ...  -1355.12493567 Eh
Zero point energy                ...      0.42991477 Eh     269.78 kcal/mol
Thermal vibrational correction   ...      0.02033990 Eh      12.76 kcal/mol
Thermal rotational correction    ...      0.00141627 Eh       0.89 kcal/mol
Thermal translational correction ...      0.00141627 Eh       0.89 kcal/mol
-----------------------------------------------------------------------
Total thermal energy                  -1354.67184846 Eh


Summary of corrections to the electronic energy:
(perhaps to be used in another calculation)
Total thermal correction                  0.02317244 Eh      14.54 kcal/mol
Non-thermal (ZPE) correction              0.42991477 Eh     269.78 kcal/mol
-----------------------------------------------------------------------
Total correction                          0.45308721 Eh     284.32 kcal/mol


--------
ENTHALPY
--------

The enthalpy is H = U + kB*T
                kB is Boltzmann's constant
Total thermal energy              ...  -1354.67184846 Eh 
Thermal Enthalpy correction       ...      0.00094421 Eh       0.59 kcal/mol
-----------------------------------------------------------------------
Total Enthalpy                    ...  -1354.67090425 Eh


Note: Only C1 symmetry has been detected, increase convergence thresholds 
      if your molecule has a higher symmetry. Symmetry factor of 1.0 is   
      used for the rotational entropy correction. 
 

Note: Rotational entropy computed according to Herzberg 
Infrared and Raman Spectra, Chapter V,1, Van Nostrand Reinhold, 1945 
Point Group:  C1, Symmetry Number:   1  
Rotational constants in cm-1:     0.011949     0.005542     0.004549 

Vibrational entropy computed according to the QRRHO of S. Grimme
Chem.Eur.J. 2012 18 9955 using a reference frequency of 100.0 cm-1


-------
ENTROPY
-------

The entropy contributions are T*S = T*(S(el)+S(vib)+S(rot)+S(trans))
     S(el)   - electronic entropy
     S(vib)  - vibrational entropy
     S(rot)  - rotational entropy
     S(trans)- translational entropy
The entropies will be listed as multiplied by the temperature to get
units of energy

Electronic entropy                ...      0.00000000 Eh      0.00 kcal/mol
Vibrational entropy               ...      0.03498938 Eh     21.96 kcal/mol
Rotational entropy                ...      0.01659939 Eh     10.42 kcal/mol
Translational entropy             ...      0.02061729 Eh     12.94 kcal/mol
-----------------------------------------------------------------------
Final entropy term                ...      0.07220606 Eh     45.31 kcal/mol

In case the symmetry of your molecule has not been determined correctly
or in case you have a reason to use a different symmetry number we print 
out the resulting rotational entropy values for sn=1,12:

 non-linear molecules -----------------------------------
|  sn= 1 | S(rot)=       0.01659939 Eh     10.42 kcal/mol|
|  sn= 2 | S(rot)=       0.01594493 Eh     10.01 kcal/mol|
|  sn= 3 | S(rot)=       0.01556210 Eh      9.77 kcal/mol|
|  sn= 4 | S(rot)=       0.01529048 Eh      9.59 kcal/mol|
|  sn= 5 | S(rot)=       0.01507979 Eh      9.46 kcal/mol|
|  sn= 6 | S(rot)=       0.01490765 Eh      9.35 kcal/mol|
|  sn= 7 | S(rot)=       0.01476210 Eh      9.26 kcal/mol|
|  sn= 8 | S(rot)=       0.01463602 Eh      9.18 kcal/mol|
|  sn= 9 | S(rot)=       0.01452481 Eh      9.11 kcal/mol|
|  sn=10 | S(rot)=       0.01442533 Eh      9.05 kcal/mol|
|  sn=11 | S(rot)=       0.01433534 Eh      9.00 kcal/mol|
|  sn=12 | S(rot)=       0.01425319 Eh      8.94 kcal/mol|
 linear molecules ---------------------------------------
|  Dinfh | S(rot)=       0.01041767 Eh      6.54 kcal/mol|
|  Cinfv | S(rot)=       0.01107213 Eh      6.95 kcal/mol|
 --------------------------------------------------------


-------------------
GIBBS FREE ENERGY
-------------------

The Gibbs free energy is G = H - T*S

Total enthalpy                    ...  -1354.67090425 Eh 
Total entropy correction          ...     -0.07220606 Eh    -45.31 kcal/mol
-----------------------------------------------------------------------
Final Gibbs free energy         ...  -1354.74311031 Eh

For completeness - the Gibbs free energy minus the electronic energy
G-E(el)                           ...      0.38182536 Eh    239.60 kcal/mol


Maximum memory used throughout the entire PROP-calculation: 448.4 MB

--------------------------------
SUGGESTED CITATIONS FOR THIS RUN
--------------------------------

Below you find a list of papers that are relevant to this ORCA run
We neither can nor want to force you to cite these papers, but we appreciate if you do
You receive ORCA, which is the product of decades of hard work by many enthusiastic individuals, for free
The only thing we kindly ask in return is that you cite our papers,
We deeply appreciate it, if you show your appreciation for ORCA by not just citing the generic ORCA reference.

Please note that relegating all ORCA citations to the supporting information does *not* help us.
SI sections are not indexed - citations you put there will not count into any citation statistics
But we need these citations in order to attract the funding resources that allow us to do what we are doing

Therefore, if you are a happy ORCA user, please consider citing a few of the papers listed below in the main body of your paper

In addition to the list printed below, the program has created the file input.bibtex that contains the list in bibtex format
You can import this file easily into all common literature databanks and citation aid programs


List of essential papers. We consider these as the minimum necessary citations

  1. Neese, F.
     Software update: the ORCA program system, version 6.0
     WIRES Comput. Molec. Sci. 2025 15(1), e70019
     doi.org/10.1002/wcms.7019

List of papers to cite with high priority. The work reported in these papers was absolutely
necessary for this run to complete.
Our perspective: the developers of density functionals and basis sets usually get cited in chemistry papers
Good! But without the algorithms to do something with them, the functionals or basis sets would not do anything.
Hence, in our opinion, the algorithm design and method developments papers are equally worthy of getting cited

  1. Neese, F.
     An improvement of the resolution of the identity approximation for the formation of the Coulomb matrix
     J. Comp. Chem. 2003 24(14), 1740-1747
     doi.org/10.1002/jcc.10318
  2. Neese, F.; Wennmohs, F.; Hansen, A.; Becker, U.
     Efficient, approximate and parallel Hartree-Fock and hybrid DFT calculations. A 'chain-of-spheres' algorithm for the Hartree-Fock exchange
     Chem. Phys. 2009 356(1-3), 98-109
     doi.org/10.1016/j.chemphys.2008.10.036
  3. Grimme, S.; Antony, J.; Ehrlich, S.; Krieg, H.
     A consistent and accurate ab initio parametrization of density functional dispersion correction (DFT-D) for the 94 elements H-Pu
     J. Chem. Phys. 2010 132 , 154104
     doi.org/10.1063/1.3382344
  4. Bykov, D.; Petrenko, T.; Izsak, R.; Kossmann, S.; Becker, U.; Valeev, E.; Neese, F.
     Efficient implementation of the analytic second derivatives of Hartree-Fock and hybrid DFT energies: a detailed analysis of different approximations
     Molec. Phys. 2015 113 , 1961-1977
     doi.org/10.1080/00268976.2015.1025114
  5. Helmich-Paris, B.; de Souza, B.; Neese, F.; Izsák, R.
     An improved chain of spheres for exchange algorithm
     J. Chem. Phys. 2021 155(10), 104109
     doi.org/10.1063/5.0058766
  6. Neese, F.
     The SHARK Integral Generation and Digestion System
     J. Comp. Chem. 2022 44(3), 381
     doi.org/10.1002/jcc.26942

List of suggested additional citations. These are papers that are important in the 'surrounding' of 
of this run, or papers that preceded the highly important papers. If you like your results we are grateful for a citation.

  1. Izsak, R.; Neese, F.
     An overlap fitted chain of spheres exchange method
     J. Chem. Phys. 2011 135 , 144105
     doi.org/10.1063/1.3646921
  2. Izsak, R.; Hansen, A.; Neese, F.
     The resolution of identity and chain of spheres approximations for the LPNO-CCSD singles Fock term
     Molec. Phys. 2012 110 , 2413-2417
     doi.org/10.1080/00268976.2012.687466
  3. Neese, F.
     The ORCA program system
     WIRES Comput. Molec. Sci. 2012 2(1), 73-78
     doi.org/10.1002/wcms.81
  4. Izsak, R.; Neese, F.; Klopper, W.
     Robust fitting techniques in the chain of spheres approximation to the Fock exchange: The role of the complementary space
     J. Chem. Phys. 2013 139 , 
     doi.org/10.1063/1.4819264
  5. Neese, F.
     Software update: the ORCA program system, version 4.0
     WIRES Comput. Molec. Sci. 2018 8(1), 1-6
     doi.org/10.1002/wcms.1327
  6. Neese, F.; Wennmohs, F.; Becker, U.; Riplinger, C.
     The ORCA quantum chemistry program package
     J. Chem. Phys. 2020 152(22), 224108
     doi.org/10.1063/5.0004608
  7. Neese, F.
     Software update: The ORCA program system—Version 5.0
     WIRES Comput. Molec. Sci. 2022 12(1), e1606
     doi.org/10.1002/wcms.1606

List of optional additional citations

  1. Neese, F.
     Approximate second-order SCF convergence for spin unrestricted wavefunctions
     Chem. Phys. Lett. 2000 325(1-3), 93-98
     doi.org/10.1016/s0009-2614(00)00662-x

Timings for individual modules:

Sum of individual times          ...    12063.389 sec (= 201.056 min)
Startup calculation              ...       71.828 sec (=   1.197 min)   0.6 %
SCF iterations                   ...     4668.576 sec (=  77.810 min)  38.7 %
Property integrals               ...     1232.619 sec (=  20.544 min)  10.2 %
SCF Response                     ...     1240.589 sec (=  20.676 min)  10.3 %
Property calculations            ...     2616.623 sec (=  43.610 min)  21.7 %
SCF Gradient evaluation          ...     2232.271 sec (=  37.205 min)  18.5 %
Geometry relaxation              ...        0.883 sec (=   0.015 min)   0.0 %
                             ****ORCA TERMINATED NORMALLY****
TOTAL RUN TIME: 0 days 4 hours 46 minutes 3 seconds 297 msec
