
                                 *****************
                                 * O   R   C   A *
                                 *****************

                                            #,                                       
                                            ###                                      
                                            ####                                     
                                            #####                                    
                                            ######                                   
                                           ########,                                 
                                     ,,################,,,,,                         
                               ,,#################################,,                 
                          ,,##########################################,,             
                       ,#########################################, ''#####,          
                    ,#############################################,,   '####,        
                  ,##################################################,,,,####,       
                ,###########''''           ''''###############################       
              ,#####''   ,,,,##########,,,,          '''####'''          '####       
            ,##' ,,,,###########################,,,                        '##       
           ' ,,###''''                  '''############,,,                           
         ,,##''                                '''############,,,,        ,,,,,,###''
      ,#''                                            '''#######################'''  
     '                                                          ''''####''''         
             ,#######,   #######,   ,#######,      ##                                
            ,#'     '#,  ##    ##  ,#'     '#,    #''#        ,####,    ,#,          
            ##       ##  ##   ,#'  ##            #'  '#       #'       ,# #          
            ##       ##  #######   ##           ,######,      #####,      #          
            '#,     ,#'  ##    ##  '#,     ,#' ,#      #,     #,   #      #          
             '#######'   ##     ##  '#######'  #'      '#     '####' #    #          



                #########################################################
                #                        -***-                          #
                #          Department of theory and spectroscopy        #
                #                                                       #
                #                      Frank Neese                      #
                #                                                       #
                #     Directorship, Architecture, Infrastructure        #
                #                    SHARK, DRIVERS                     #
                #        Core code/Algorithms in most modules           #
                #                                                       #
                #        Max Planck Institute fuer Kohlenforschung      #
                #                Kaiser Wilhelm Platz 1                 #
                #                 D-45470 Muelheim/Ruhr                 #
                #                      Germany                          #
                #                                                       #
                #                  All rights reserved                  #
                #                        -***-                          #
                #########################################################


                         Program Version 6.1.0  -  RELEASE   -
                                (GIT: $679e74b$)
                          ($2025-06-10 18:02:51 +0200$)


 With contributions from (in alphabetic order):
[Max-Planck-Institut fuer Kohlenforschung]                               
  Daniel Aravena         : Magnetic Suceptibility                        
  Michael Atanasov       : Ab Initio Ligand Field Theory (pilot matlab implementation)
  Alexander A. Auer      : GIAO ZORA, VPT2 properties, NMR spectrum      
  Ute Becker             : All parallelization in ORCA, NUMFREQ, NUMCALC 
  Giovanni Bistoni       : ED, misc. LED, open-shell LED, HFLD           
  Dmytro Bykov           : pre 5.0 version of the SCF Hessian            
  Marcos Casanova-Páez   : Triplet and SCS-CIS(D). UHF-(DLPNO)-IP/EA/STEOM-CCSD. UHF-CVS-IP/STEOM-CCSD   
  Vijay G. Chilkuri      : MRCI spin determinant printing, contributions to CSF-ICE 
  Pauline Colinet        : FMM embedding                                 
  Dipayan Datta          : RHF DLPNO-CCSD density                        
  Achintya Kumar Dutta   : EOM-CC, STEOM-CC                              
  Nicolas Foglia         : Exact transition moments, OPA infrastructure, MCD improvements    
  Dmitry Ganyushin       : Spin-Orbit,Spin-Spin,Magnetic field MRCI      
  Miquel Garcia-Rates    : C-PCM and meta-GGA Hessian, CCSD/C-PCM, Gaussian charge scheme 
  Tiago L. C. Gouveia    : GS-ROHF, GS-ROCIS                             
  Yang Guo               : DLPNO-NEVPT2, F12-NEVPT2, CIM, IAO-localization        
  Andreas Hansen         : Spin unrestricted coupled pair/coupled cluster methods 
  Ingolf Harden          : AUTO-CI MPn and infrastructure                
  Benjamin Helmich-Paris : MC-RPA, TRAH-(SCF,CASSCF), AVAS, COSX integrals, SCF dyn. polar., MC-PDFT, srDFT 
  Lee Huntington         : MR-EOM, pCC                                   
  Robert Izsak           : Overlap fitted RIJCOSX, COSX-SCS-MP3, EOM     
  Riya Kayal             : Wick's Theorem for AUTO-CI, AUTO-CI UHF-CCSDT 
  Emily Kempfer          : AUTO-CI RHF CISDT and CCSDT, approximate NEVPT4
  Christian Kollmar      : KDIIS, OOCD, Brueckner-CCSD(T), CCSD density, CASPT2, CASPT2-K, improved NEVPT2 
  Axel Koslowski         : Symmetry handling                             
  Simone Kossmann        : meta-GGA functionals, TD-DFT gradient, OOMP2, (MP2 Hessian; deprecated post 5.0) 
  Lucas Lang             : DCDCAS, Hyperfine gauge corrections, ICE-SOC+SSC
  Marvin Lechner         : AUTO-CI (C++ implementation), FIC-MRCC        
  Spencer Leger          : CASSCF response                               
  Dagmar Lenk            : GEPOL surface, SMD, ORCA-2-JSON               
  Dimitrios Liakos       : Extrapolation schemes; Compound Job, Property file
  Dimitrios Manganas     : Further ROCIS development; embedding schemes. LFT, Crystal Embedding 
  Dimitrios Pantazis     : SARC Basis sets                               
  Anastasios Papadopoulos: AUTO-CI, single reference methods and gradients 
  Taras Petrenko         : pre 6.0 DFT Hessian and TD-DFT gradient,  ECA, NRVS 
  Petra Pikulova         : Analytic Raman intensities                    
  Peter Pinski           : DLPNO-MP2, DLPNO-MP2 Gradient                 
  Shashank Vittal Rao    : ES-AILFT, MagRelax                            
  Christoph Reimann      : Effective Core Potentials                     
  Marius Retegan         : Local ZFS, SOC                                
  Christoph Riplinger    : Optimizer, TS searches, QM/MM, DLPNO-CCSD(T), (RO)-DLPNO pert. Triples 
  Michael Roemelt        : Original ROCIS implementation, recursive CI coupling coefficients
  Masaaki Saitow         : Open-shell DLPNO-CCSD energy and density      
  Barbara Sandhoefer     : DKH picture change effects                    
  Yorick L. A. Schmerwitz: GMF and freeze-and-release deltaSCF, NEB S-IDPP initial path                    
  Kantharuban Sivalingam : CASSCF convergence/infrastructure, NEVPT2, NEVPT3, NEVPT4(SD), FIC-MRCI and CEPA variants
  Bernardo de Souza      : ESD, SOC TD-DFT                               
  Georgi L. Stoychev     : AutoAux, RI-MP2 NMR, DLPNO-MP2 response, X2C  
  Van Anh Tran           : RI-MP2 g-tensors                              
  Willem Van den Heuvel  : Paramagnetic NMR                              
  Zikuan Wang            : NOTCH, Electric field optimization            
  Frank Wennmohs         : Technical directorship and infrastructure     
  Hang Xu                : AUTO-CI-Response properties                   
                                                                         
[FACCTs GmbH]                                                            
  Markus Bursch, Nicolas Foglia, Miquel Garcia-Rates, Ingolf Harden, Hagen Neugebauer, Anastasios Papadopoulos, 
  Christoph Riplinger, Bernardo de Souza, Georgi L. Stoychev                                                    
                                                                 
  APM, various basis sets, CI-OPT, improved COSX, DLPNO-Multilevel,           
  DOCKER, DRACO, updates on ESD, Fragmentator, GOAT, IRC, LR-CPCM, L-BFGS, MBIS, meta-GGA TD-DFT gradient, ML-optimized integration grids, 
  MM, NACMEs, nearIR, NEB, NEB-TS, NL-DFT gradient (VV10), 2- and 3-layer-ONIOM, interface openCOSMO-RS, QMMM,   
  Crystal-QMMM, RESP, rigid body optimization, SF, symmetry and pop. for TD-DFT, various functionals, SOLVATOR                                   
                                                                         
[Other institutions]                                                     
  V. Asgeirsson          : NEB                                           
  Christoph Bannwarth    : sTDA-DFT, sTD-DFT, PBEh-3c, B97-3c, D3        
  Giovanni Bistoni       : ETS/NOCV, ADLD/ADEX, COVALED                  
  Martin Brehm           : Molecular dynamics                            
  Ronald Cardenas        : ETS/NOCV                                      
  Martina Colucci        : COVALED                                       
  Sebastian Ehlert       : rSCAN, r2SCAN, r2SCAN-3c, D4, dhf basis sets  
  Marvin Friede          : D4 for Fr, Ra, Ac-Lr                          
  Lars Goerigk           : TD-DFT with DH, B97 family of functionals     
  Stefan Grimme          : VdW corrections, initial TS optimization, DFT functionals, gCP, sTDA/sTD-DF 
  Waldemar Hujo          : DFT-NL                                        
  H. Jonsson             : NEB                                           
  Holger Kruse           : gCP                                           
  Marcel Mueller         : wB97X-3c, vDZP basis set                      
  Hagen Neugebauer       : wr2SCAN, Native XTB                           
  Gianluca Regni         : ADLD/ADEX                                     
  Tobias Risthaus        : pre 6.0 range-separated hybrid DFT and stability analysis
  Lukas Wittmann         : regularized MP2, r2SCAN double-hybrids, wr2SCAN        
                                                                         
We gratefully acknowledge several colleagues who have allowed us to      
interface, adapt or use parts of their codes:                            
  Ed Valeev, F. Pavosevic, A. Kumar             : LibInt (2-el integral package), F12 methods 
  Garnet Chan, S. Sharma, J. Yang, R. Olivares  : DMRG                   
  Ulf Ekstrom                                   : XCFun DFT Library      
  Mihaly Kallay                                 : mrcc  (arbitrary order and MRCC methods)
  Frank Weinhold                                : gennbo (NPA and NBO analysis)           
  Simon Mueller                                 : openCOSMO-RS                            
  Christopher J. Cramer and Donald G. Truhlar   : smd solvation model                     
  S Lehtola, MJT Oliveira, MAL Marques          : LibXC Library                           
  Liviu Ungur et al                             : ANISO software                          


 Your calculation uses the libint2 library for the computation of 2-el integrals
 For citations please refer to: http://libint.valeyev.net

 Your ORCA version has been built with support for libXC version: 7.0.0
 For citations please refer to: https://libxc.gitlab.io

 This ORCA versions uses:
   CBLAS   interface :  Fast vector & matrix operations
   LAPACKE interface :  Fast linear algebra routines
   SCALAPACK package :  Parallel linear algebra routines
   Shared memory     :  Shared parallel matrices
   BLAS/LAPACK       :  OpenBLAS 0.3.29  USE64BITINT DYNAMIC_ARCH NO_AFFINITY Haswell SINGLE_THREADED
        Core in use  :  Haswell
   Copyright (c) 2011-2014, The OpenBLAS Project


  ***********************************
  * Starting time: Tue Jul 15 17:00:58 2025
  * Host name:     node309.cluster
  * Process ID:    4186404
  * Working dir.:  /scratch/53034148/_e0ifd0
  ***********************************

NOTE: MaxCore=3840 MB was set to SCF,MP2,MDCI,CIPSI,MRCI,RASCI and CIS
      => If you want to overwrite this, your respective input block should be placed after the MaxCore statement
Your calculation utilizes the atom-pairwise dispersion correction
with the zero-damping scheme (D30)


XCFun DFT library Copyright 2009-2010 Ulf Ekstrom and contributors.
See http://admol.org/xcfun for more information.
This is free software; see the source code for copying conditions.
There is ABSOLUTELY NO WARRANTY; not even for MERCHANTABILITY or FITNESS FOR A PARTICULAR PURPOSE.
For details see the documentation.
Scientific users of this library should cite U. Ekstrom, L. Visscher, R. Bast, A. J. Thorvaldsen and K. Ruud;
J.Chem.Theor.Comp. 2010, DOI: 10.1021/ct100117s
XCFun Version 0.99 

Warning: RI is on but no J-basis has been assigned. Assigning Def2/J (nothing to worry about!)
================================================================================

----- Orbital basis set information -----
Your calculation utilizes the basis: 6-31+G**
   H-He, Li-Ne : W. J. Hehre, R. Ditchfield and J.A. Pople, J. Chem. Phys. 56, 2257 (1972).
                 Note: He and Ne are unpublished basis sets taken from the Gaussian program.
                 Note: Li and B from J. D. Dill and J. A. Pople, J. Chem. Phys. 62, 2921 (1975).
   Na - Ar     : M. M. Francl, W. J. Pietro, W. J. Hehre, J. S. Binkley, M. S. Gordon, 
                 D. J. DeFrees and J. A. Pople, J. Chem. Phys. 77, 3654 (1982).
   K - Zn      : V. A. Rassolov, J. A. Pople, M. A. Ratner, and T. L. Windus, J. Chem. Phys. 109, 1223 (1998).
   Additional Pol./Diff. from the 6-311G equivalent.

----- AuxJ basis set information -----
Your calculation utilizes the auxiliary basis: def2/J
   H-Rn: F. Weigend, Phys. Chem. Chem. Phys. 8, 1057 (2006).
   Fr-Lr: K. Eichkorn, F. Weigend, O. Treutler, R. Ahlrichs; Theor. Chem. Acc. 97, 119 (1997).

================================================================================
                                        WARNINGS
                       Please study these warnings very carefully!
================================================================================


================================================================================
                                       INPUT FILE
================================================================================
NAME = input.inp
|  1> # Automatically generated ORCA input
|  2> 
|  3> # Number of cores
|  4> %pal nprocs 8 end
|  5> # RAM per core
|  6> %maxcore 3840
|  7> 
|  8> ! wB97X-D3 
|  9> ! 6-31+G** 
| 10> ! TightSCF 
| 11> ! Freq 
| 12> ! NoSym 
| 13> 
| 14> %geom
| 15>   Calc_Hess true
| 16> end
| 17> %Output
| 18>   JSONPropFile True
| 19> End
| 20> 
| 21> 
| 22> *xyz 0 1 
| 23> C        -2.05647800     -2.08167000      0.88774500
| 24> C        -0.71541700     -1.70909900      0.93465100
| 25> C        -0.28416500     -0.42133200      0.59501700
| 26> C        -1.26942000      0.52424300      0.22842000
| 27> C        -2.61511000      0.14482000      0.17402200
| 28> C        -3.00706900     -1.15097000      0.49263400
| 29> H        -2.34915900     -3.09576000      1.14202500
| 30> H         0.02192400     -2.45471600      1.21885300
| 31> H        -3.36878200      0.87022100     -0.11326600
| 32> H        -4.05730300     -1.42267800      0.44033700
| 33> B         1.26449900     -0.02546100      0.55323800
| 34> H         1.77671400     -1.14040800     -0.06933200
| 35> C         1.99846100      0.25456400      1.96532400
| 36> C         1.62154400     -0.15575600      3.22695000
| 37> C         2.29477100      0.51050600      4.28186900
| 38> H         0.87672200     -0.92962200      3.37196900
| 39> C         3.18117500      1.44485800      3.81583600
| 40> H         2.12659900      0.31592000      5.33381600
| 41> H         3.81494600      2.09867900      4.39929800
| 42> H         1.62131100      0.73752700     -0.30016300
| 43> B         2.59843600     -1.50111200      0.82101700
| 44> O         3.91458800     -1.36672900      0.48573300
| 45> O         2.30658900     -2.62545900      1.54984300
| 46> C         4.63313800     -2.30158900      1.32578900
| 47> C         3.53597100     -3.38385200      1.63830500
| 48> C         5.83074700     -2.82008000      0.54378100
| 49> H         6.53510700     -2.00356700      0.36766400
| 50> H         6.34785200     -3.60056500      1.11085300
| 51> H         5.53379600     -3.22754400     -0.42357200
| 52> C         5.10362000     -1.54318600      2.56675900
| 53> H         5.69862800     -0.68425300      2.24864800
| 54> H         4.26367600     -1.17124400      3.15862600
| 55> H         5.72435900     -2.18025300      3.20292000
| 56> C         3.62859600     -3.99703200      3.02758200
| 57> H         2.83537300     -4.73762700      3.15694000
| 58> H         4.59101500     -4.50097500      3.16018600
| 59> H         3.51801500     -3.23895800      3.80436100
| 60> C         3.44580100     -4.47859400      0.57559700
| 61> H         4.30831000     -5.14956000      0.61421600
| 62> H         2.54118900     -5.06516300      0.75235900
| 63> H         3.38026500     -4.04842400     -0.42732600
| 64> N        -0.86959100      1.84904700     -0.09622200
| 65> C        -1.72890400      2.59113700     -0.99317300
| 66> H        -2.65414400      2.96578200     -0.51790000
| 67> H        -1.18024500      3.46196100     -1.36638100
| 68> H        -2.00523900      1.96924900     -1.84792500
| 69> C        -0.45923500      2.66057700      1.03950500
| 70> H         0.13245900      3.51327900      0.69010500
| 71> H        -1.32568600      3.04760200      1.60515900
| 72> H         0.15635300      2.07849500      1.72498600
| 73> S         3.19524800      1.51043600      2.10425400
| 74> *
| 75> 
| 76> 
| 77>                          ****END OF INPUT****
================================================================================

                       ****************************
                       * Single Point Calculation *
                       ****************************

---------------------------------
CARTESIAN COORDINATES (ANGSTROEM)
---------------------------------
  C     -2.056478   -2.081670    0.887745
  C     -0.715417   -1.709099    0.934651
  C     -0.284165   -0.421332    0.595017
  C     -1.269420    0.524243    0.228420
  C     -2.615110    0.144820    0.174022
  C     -3.007069   -1.150970    0.492634
  H     -2.349159   -3.095760    1.142025
  H      0.021924   -2.454716    1.218853
  H     -3.368782    0.870221   -0.113266
  H     -4.057303   -1.422678    0.440337
  B      1.264499   -0.025461    0.553238
  H      1.776714   -1.140408   -0.069332
  C      1.998461    0.254564    1.965324
  C      1.621544   -0.155756    3.226950
  C      2.294771    0.510506    4.281869
  H      0.876722   -0.929622    3.371969
  C      3.181175    1.444858    3.815836
  H      2.126599    0.315920    5.333816
  H      3.814946    2.098679    4.399298
  H      1.621311    0.737527   -0.300163
  B      2.598436   -1.501112    0.821017
  O      3.914588   -1.366729    0.485733
  O      2.306589   -2.625459    1.549843
  C      4.633138   -2.301589    1.325789
  C      3.535971   -3.383852    1.638305
  C      5.830747   -2.820080    0.543781
  H      6.535107   -2.003567    0.367664
  H      6.347852   -3.600565    1.110853
  H      5.533796   -3.227544   -0.423572
  C      5.103620   -1.543186    2.566759
  H      5.698628   -0.684253    2.248648
  H      4.263676   -1.171244    3.158626
  H      5.724359   -2.180253    3.202920
  C      3.628596   -3.997032    3.027582
  H      2.835373   -4.737627    3.156940
  H      4.591015   -4.500975    3.160186
  H      3.518015   -3.238958    3.804361
  C      3.445801   -4.478594    0.575597
  H      4.308310   -5.149560    0.614216
  H      2.541189   -5.065163    0.752359
  H      3.380265   -4.048424   -0.427326
  N     -0.869591    1.849047   -0.096222
  C     -1.728904    2.591137   -0.993173
  H     -2.654144    2.965782   -0.517900
  H     -1.180245    3.461961   -1.366381
  H     -2.005239    1.969249   -1.847925
  C     -0.459235    2.660577    1.039505
  H      0.132459    3.513279    0.690105
  H     -1.325686    3.047602    1.605159
  H      0.156353    2.078495    1.724986
  S      3.195248    1.510436    2.104254

----------------------------
CARTESIAN COORDINATES (A.U.)
----------------------------
  NO LB      ZA    FRAG     MASS         X           Y           Z
   0 C     6.0000    0    12.011   -3.886180   -3.933786    1.677595
   1 C     6.0000    0    12.011   -1.351942   -3.229729    1.766234
   2 C     6.0000    0    12.011   -0.536994   -0.796202    1.124419
   3 C     6.0000    0    12.011   -2.398856    0.990676    0.431651
   4 C     6.0000    0    12.011   -4.941842    0.273670    0.328854
   5 C     6.0000    0    12.011   -5.682537   -2.175018    0.930943
   6 H     1.0000    0     1.008   -4.439267   -5.850139    2.158114
   7 H     1.0000    0     1.008    0.041430   -4.638741    2.303298
   8 H     1.0000    0     1.008   -6.366075    1.644479   -0.214042
   9 H     1.0000    0     1.008   -7.667192   -2.688472    0.832116
  10 B     5.0000    0    10.810    2.389557   -0.048114    1.045468
  11 H     1.0000    0     1.008    3.357503   -2.155059   -0.131018
  12 C     6.0000    0    12.011    3.776544    0.481056    3.713924
  13 C     6.0000    0    12.011    3.064274   -0.294336    6.098052
  14 C     6.0000    0    12.011    4.336489    0.964717    8.091560
  15 H     1.0000    0     1.008    1.656764   -1.756731    6.372098
  16 C     6.0000    0    12.011    6.011550    2.730386    7.210885
  17 H     1.0000    0     1.008    4.018690    0.597002   10.079451
  18 H     1.0000    0     1.008    7.209203    3.965929    8.313468
  19 H     1.0000    0     1.008    3.063834    1.393724   -0.567226
  20 B     5.0000    0    10.810    4.910332   -2.836691    1.551497
  21 O     8.0000    0    15.999    7.397499   -2.582744    0.917902
  22 O     8.0000    0    15.999    4.358822   -4.961398    2.928779
  23 C     6.0000    0    12.011    8.755362   -4.349373    2.505378
  24 C     6.0000    0    12.011    6.682017   -6.394554    3.095948
  25 C     6.0000    0    12.011   11.018515   -5.329179    1.027597
  26 H     1.0000    0     1.008   12.349562   -3.786193    0.694784
  27 H     1.0000    0     1.008   11.995702   -6.804082    2.099208
  28 H     1.0000    0     1.008   10.457359   -6.099174   -0.800435
  29 C     6.0000    0    12.011    9.644444   -2.916199    4.850472
  30 H     1.0000    0     1.008   10.768846   -1.293051    4.249329
  31 H     1.0000    0     1.008    8.057180   -2.213330    5.968938
  32 H     1.0000    0     1.008   10.817471   -4.120081    6.052642
  33 C     6.0000    0    12.011    6.857053   -7.553296    5.721301
  34 H     1.0000    0     1.008    5.358078   -8.952818    5.965752
  35 H     1.0000    0     1.008    8.675761   -8.505610    5.971886
  36 H     1.0000    0     1.008    6.648085   -6.120744    7.189200
  37 C     6.0000    0    12.011    6.511620   -8.463316    1.087721
  38 H     1.0000    0     1.008    8.141526   -9.731258    1.160700
  39 H     1.0000    0     1.008    4.802151   -9.571771    1.421752
  40 H     1.0000    0     1.008    6.387775   -7.650413   -0.807529
  41 N     7.0000    0    14.007   -1.643289    3.494192   -0.181833
  42 C     6.0000    0    12.011   -3.267155    4.896539   -1.876825
  43 H     1.0000    0     1.008   -5.015605    5.604516   -0.978689
  44 H     1.0000    0     1.008   -2.230340    6.542158   -2.582086
  45 H     1.0000    0     1.008   -3.789353    3.721341   -3.492072
  46 C     6.0000    0    12.011   -0.867828    5.027762    1.964380
  47 H     1.0000    0     1.008    0.250311    6.639135    1.304109
  48 H     1.0000    0     1.008   -2.505183    5.759133    3.033311
  49 H     1.0000    0     1.008    0.295464    3.927786    3.259751
  50 S    16.0000    0    32.060    6.038144    2.854310    3.976464

--------------------------------
INTERNAL COORDINATES (ANGSTROEM)
--------------------------------
 C      0   0   0     0.000000000000     0.00000000     0.00000000
 C      1   0   0     1.392642785713     0.00000000     0.00000000
 C      2   1   0     1.399883347908   122.31561606     0.00000000
 C      3   2   1     1.413942310018   117.60878364     1.65977092
 C      4   3   2     1.399214969700   119.92687257   357.97841464
 C      1   2   3     1.387781842222   119.32583745   359.95475167
 H      1   2   3     1.085679056748   120.10572110   178.91110503
 H      2   1   3     1.086456275132   118.60311442   181.72771193
 H      5   4   3     1.084786840503   119.81179025   180.36839564
 H      6   1   2     1.086071668091   120.55075643   179.44742242
 B      3   2   1     1.599005790602   122.17102215   184.28532644
 H     11   3   2     1.375886777295    99.89025358    42.74023342
 C     11   3   2     1.615890184841   117.38617328   282.10340051
 C     13  11   3     1.379176961512   128.58699571    20.72678895
 C     14  13  11     1.417742481106   114.27237167   194.14002748
 H     14  13  11     1.083816824007   121.50946889    14.58790767
 C     15  14  13     1.369639539517   112.00756243     0.62376058
 H     15  14  13     1.082930294982   124.37524785   180.07451214
 H     17  15  14     1.081469133136   127.45380264   179.35216074
 H     11   3   2     1.199065785639   117.66737400   143.47873283
 B     12  11   3     1.264142303185    98.88897179   238.12483783
 O     21  12  11     1.364818756630   115.19673667   248.71025111
 O     21  12  11     1.371319870086   118.02993185   108.17842265
 C     22  21  12     1.447747010094   105.81303442   203.31140736
 C     23  21  12     1.447192305748   106.34145211   136.31632809
 C     24  22  21     1.521393028125   108.21044611   147.01740672
 H     26  24  22     1.092626965830   109.61068183    66.20588613
 H     26  24  22     1.094588995666   110.40118038   185.26270293
 H     26  24  22     1.090861418470   111.64318366   306.38132161
 C     24  22  21     1.528572851922   107.66541659   266.02603375
 H     30  24  22     1.092243117110   108.74728199   303.95370784
 H     30  24  22     1.092773224502   111.83938241    63.11961576
 H     30  24  22     1.093559365801   110.97456508   184.60453604
 C     25  23  21     1.521400567160   108.58708362   141.63299000
 H     34  25  23     1.092893944497   109.69493582    66.09381769
 H     34  25  23     1.094437161113   110.47256558   185.25248853
 H     34  25  23     1.091004107177   111.34219466   306.30470750
 C     25  23  21     1.528377888066   106.42384933   260.57466556
 H     38  25  23     1.093438875931   111.61903712   183.91361692
 H     38  25  23     1.092534149100   108.71822248   303.61010082
 H     38  25  23     1.093250081237   111.07354318    62.38604452
 N      4   3   2     1.421394138099   119.11170993   178.73392043
 C     42   4   3     1.446940737028   116.90697334   153.52057663
 H     43  42   4     1.105582361543   113.84847707    75.75270733
 H     43  42   4     1.094826629435   108.76150370   195.25201398
 H     43  42   4     1.092568852875   110.07478107   313.66749757
 C     42   4   3     1.454939451031   114.89284719   286.92335641
 H     47  42   4     1.095117733598   109.73328829   161.23869652
 H     47  42   4     1.104757952559   111.95508067   281.54748206
 H     47  42   4     1.089794586988   110.63388300    41.99361735
 S     17  15  14     1.712895637842   111.80404113   359.95673913

---------------------------
INTERNAL COORDINATES (A.U.)
---------------------------
 C      0   0   0     0.000000000000     0.00000000     0.00000000
 C      1   0   0     2.631713467378     0.00000000     0.00000000
 C      2   1   0     2.645396146982   122.31561606     0.00000000
 C      3   2   1     2.671963735098   117.60878364     1.65977092
 C      4   3   2     2.644133095216   119.92687257   357.97841464
 C      1   2   3     2.622527615429   119.32583745   359.95475167
 H      1   2   3     2.051636086587   120.10572110   178.91110503
 H      2   1   3     2.053104816480   118.60311442   181.72771193
 H      5   4   3     2.049950042233   119.81179025   180.36839564
 H      6   1   2     2.052378014502   120.55075643   179.44742242
 B      3   2   1     3.021683030792   122.17102215   184.28532644
 H     11   3   2     2.600049200370    99.89025358    42.74023342
 C     11   3   2     3.053589911841   117.38617328   282.10340051
 C     13  11   3     2.606266747471   128.58699571    20.72678895
 C     14  13  11     2.679145017717   114.27237167   194.14002748
 H     14  13  11     2.048116976710   121.50946889    14.58790767
 C     15  14  13     2.588243631878   112.00756243     0.62376058
 H     15  14  13     2.046441679642   124.37524785   180.07451214
 H     17  15  14     2.043680483916   127.45380264   179.35216074
 H     11   3   2     2.265905951412   117.66737400   143.47873283
 B     12  11   3     2.388882747323    98.88897179   238.12483783
 O     21  12  11     2.579133672470   115.19673667   248.71025111
 O     21  12  11     2.591418996468   118.02993185   108.17842265
 C     22  21  12     2.735845360281   105.81303442   203.31140736
 C     23  21  12     2.734797120982   106.34145211   136.31632809
 C     24  22  21     2.875016165213   108.21044611   147.01740672
 H     26  24  22     2.064765731955   109.61068183    66.20588613
 H     26  24  22     2.068473431013   110.40118038   185.26270293
 H     26  24  22     2.061429330969   111.64318366   306.38132161
 C     24  22  21     2.888584065880   107.66541659   266.02603375
 H     30  24  22     2.064040362998   108.74728199   303.95370784
 H     30  24  22     2.065042120791   111.83938241    63.11961576
 H     30  24  22     2.066527712548   110.97456508   184.60453604
 C     25  23  21     2.875030411924   108.58708362   141.63299000
 H     34  25  23     2.065270248520   109.69493582    66.09381769
 H     34  25  23     2.068186505291   110.47256558   185.25248853
 H     34  25  23     2.061698973549   111.34219466   306.30470750
 C     25  23  21     2.888215637585   106.42384933   260.57466556
 H     38  25  23     2.066300019693   111.61903712   183.91361692
 H     38  25  23     2.064590333755   108.71822248   303.61010082
 H     38  25  23     2.065943249425   111.07354318    62.38604452
 N      4   3   2     2.686045649367   119.11170993   178.73392043
 C     42   4   3     2.734321724996   116.90697334   153.52057663
 H     43  42   4     2.089247881809   113.84847707    75.75270733
 H     43  42   4     2.068922493757   108.76150370   195.25201398
 H     43  42   4     2.064655914387   110.07478107   313.66749757
 C     42   4   3     2.749437103885   114.89284719   286.92335641
 H     47  42   4     2.069472600900   109.73328829   161.23869652
 H     47  42   4     2.087689974608   111.95508067   281.54748206
 H     47  42   4     2.059413311638   110.63388300    41.99361735
 S     17  15  14     3.236903651509   111.80404113   359.95673913

---------------------
BASIS SET INFORMATION
---------------------
There are 6 groups of distinct atoms

 Group   1 Type C   : 11s5p1d contracted to 4s3p1d pattern {6311/311/1}
 Group   2 Type H   : 4s1p contracted to 2s1p pattern {31/1}
 Group   3 Type B   : 11s5p1d contracted to 4s3p1d pattern {6311/311/1}
 Group   4 Type O   : 11s5p1d contracted to 4s3p1d pattern {6311/311/1}
 Group   5 Type N   : 11s5p1d contracted to 4s3p1d pattern {6311/311/1}
 Group   6 Type S   : 17s11p1d contracted to 5s4p1d pattern {66311/6311/1}

Atom   0C    basis set group =>   1
Atom   1C    basis set group =>   1
Atom   2C    basis set group =>   1
Atom   3C    basis set group =>   1
Atom   4C    basis set group =>   1
Atom   5C    basis set group =>   1
Atom   6H    basis set group =>   2
Atom   7H    basis set group =>   2
Atom   8H    basis set group =>   2
Atom   9H    basis set group =>   2
Atom  10B    basis set group =>   3
Atom  11H    basis set group =>   2
Atom  12C    basis set group =>   1
Atom  13C    basis set group =>   1
Atom  14C    basis set group =>   1
Atom  15H    basis set group =>   2
Atom  16C    basis set group =>   1
Atom  17H    basis set group =>   2
Atom  18H    basis set group =>   2
Atom  19H    basis set group =>   2
Atom  20B    basis set group =>   3
Atom  21O    basis set group =>   4
Atom  22O    basis set group =>   4
Atom  23C    basis set group =>   1
Atom  24C    basis set group =>   1
Atom  25C    basis set group =>   1
Atom  26H    basis set group =>   2
Atom  27H    basis set group =>   2
Atom  28H    basis set group =>   2
Atom  29C    basis set group =>   1
Atom  30H    basis set group =>   2
Atom  31H    basis set group =>   2
Atom  32H    basis set group =>   2
Atom  33C    basis set group =>   1
Atom  34H    basis set group =>   2
Atom  35H    basis set group =>   2
Atom  36H    basis set group =>   2
Atom  37C    basis set group =>   1
Atom  38H    basis set group =>   2
Atom  39H    basis set group =>   2
Atom  40H    basis set group =>   2
Atom  41N    basis set group =>   5
Atom  42C    basis set group =>   1
Atom  43H    basis set group =>   2
Atom  44H    basis set group =>   2
Atom  45H    basis set group =>   2
Atom  46C    basis set group =>   1
Atom  47H    basis set group =>   2
Atom  48H    basis set group =>   2
Atom  49H    basis set group =>   2
Atom  50S    basis set group =>   6
---------------------------------
AUXILIARY/J BASIS SET INFORMATION
---------------------------------
There are 6 groups of distinct atoms

 Group   1 Type C   : 12s5p4d2f1g contracted to 6s4p3d1f1g pattern {711111/2111/211/2/1}
 Group   2 Type H   : 5s2p1d contracted to 3s1p1d pattern {311/2/1}
 Group   3 Type B   : 12s5p4d2f1g contracted to 6s4p3d1f1g pattern {711111/2111/211/2/1}
 Group   4 Type O   : 12s5p4d2f1g contracted to 6s4p3d1f1g pattern {711111/2111/211/2/1}
 Group   5 Type N   : 12s5p4d2f1g contracted to 6s4p3d1f1g pattern {711111/2111/211/2/1}
 Group   6 Type S   : 14s5p5d2f1g contracted to 8s4p3d1f1g pattern {71111111/2111/311/2/1}

Atom   0C    basis set group =>   1
Atom   1C    basis set group =>   1
Atom   2C    basis set group =>   1
Atom   3C    basis set group =>   1
Atom   4C    basis set group =>   1
Atom   5C    basis set group =>   1
Atom   6H    basis set group =>   2
Atom   7H    basis set group =>   2
Atom   8H    basis set group =>   2
Atom   9H    basis set group =>   2
Atom  10B    basis set group =>   3
Atom  11H    basis set group =>   2
Atom  12C    basis set group =>   1
Atom  13C    basis set group =>   1
Atom  14C    basis set group =>   1
Atom  15H    basis set group =>   2
Atom  16C    basis set group =>   1
Atom  17H    basis set group =>   2
Atom  18H    basis set group =>   2
Atom  19H    basis set group =>   2
Atom  20B    basis set group =>   3
Atom  21O    basis set group =>   4
Atom  22O    basis set group =>   4
Atom  23C    basis set group =>   1
Atom  24C    basis set group =>   1
Atom  25C    basis set group =>   1
Atom  26H    basis set group =>   2
Atom  27H    basis set group =>   2
Atom  28H    basis set group =>   2
Atom  29C    basis set group =>   1
Atom  30H    basis set group =>   2
Atom  31H    basis set group =>   2
Atom  32H    basis set group =>   2
Atom  33C    basis set group =>   1
Atom  34H    basis set group =>   2
Atom  35H    basis set group =>   2
Atom  36H    basis set group =>   2
Atom  37C    basis set group =>   1
Atom  38H    basis set group =>   2
Atom  39H    basis set group =>   2
Atom  40H    basis set group =>   2
Atom  41N    basis set group =>   5
Atom  42C    basis set group =>   1
Atom  43H    basis set group =>   2
Atom  44H    basis set group =>   2
Atom  45H    basis set group =>   2
Atom  46C    basis set group =>   1
Atom  47H    basis set group =>   2
Atom  48H    basis set group =>   2
Atom  49H    basis set group =>   2
Atom  50S    basis set group =>   6


           ************************************************************
           *        Program running with 8 parallel MPI-processes     *
           *              working on a common directory               *
           ************************************************************
------------------------------------------------------------------------------
                             ORCA STARTUP CALCULATIONS
                           -- RI-GTO INTEGRALS CHOSEN --
------------------------------------------------------------------------------
------------------------------------------------------------------------------
                   ___                                                        
                  /   \      - P O W E R E D   B Y -                         
                 /     \                                                     
                 |  |  |   _    _      __       _____    __    __             
                 |  |  |  | |  | |    /  \     |  _  \  |  |  /  |          
                  \  \/   | |  | |   /    \    | | | |  |  | /  /          
                 / \  \   | |__| |  /  /\  \   | |_| |  |  |/  /          
                |  |  |   |  __  | /  /__\  \  |    /   |      \           
                |  |  |   | |  | | |   __   |  |    \   |  |\   \          
                \     /   | |  | | |  |  |  |  | |\  \  |  | \   \       
                 \___/    |_|  |_| |__|  |__|  |_| \__\ |__|  \__/        
                                                                              
                      - O R C A' S   B I G   F R I E N D -                    
                                      &                                       
                       - I N T E G R A L  F E E D E R -                       
                                                                              
 v1 FN, 2020, v2 2021, v3 2022-2024                                           
------------------------------------------------------------------------------


----------------------
SHARK INTEGRAL PACKAGE
----------------------

Number of atoms                             ...     51
Number of basis functions                   ...    571
Number of shells                            ...    275
Maximum angular momentum                    ...      2
Integral batch strategy                     ... SHARK/LIBINT Hybrid
RI-J (if used) integral strategy            ... SPLIT-RIJ (Revised 2003 algorithm where possible)
Printlevel                                  ...      1
Contraction scheme used                     ... SEGMENTED contraction
Prescreening option                         ... SCHWARTZ
   Thresh                                   ... 2.500e-11
   Tcut                                     ... 2.500e-12
   Tpresel                                  ... 2.500e-12 
Coulomb Range Separation                    ... NOT USED
Exchange Range Separation                   ... Long Range
   Mu parameter                             ... 2.500e-01
   Scaling (regular/separated)              ... 1.957e-01 8.043e-01
Robust (split-)RI terms used:
  metric    (central integrals)             ... YES
  density   (r.h.s.  integrals)             ... YES
  potential (l.h.s.  integrals)             ... YES
Multipole approximations                    ... NOT USED
Finite Nucleus Model                        ... NOT USED
CABS basis                                  ... NOT available
Auxiliary Coulomb fitting basis             ... AVAILABLE
   # of basis functions in Aux-J            ...   1475
   # of shells in Aux-J                     ...    497
   Maximum angular momentum in Aux-J        ...      4
Auxiliary J/K fitting basis                 ... NOT available
Auxiliary Correlation fitting basis         ... NOT available
Auxiliary 'external' fitting basis          ... NOT available

Checking pre-screening integrals            ... done (  0.0 sec) Dimension = 275
   => SHARK Basis and OBASIS are compatible. Storing Pre-screening
Shell pair information
Shell pair cut-off parameter TPreSel        ...   2.5e-12
Total number of shell pairs                 ...     37950
Shell pairs after pre-screening             ...     29594
Total number of primitive shell pairs       ...    154905
Primitive shell pairs kept                  ...     75296
          la=0 lb=0:   8877 shell pairs
          la=1 lb=0:  12065 shell pairs
          la=1 lb=1:   4155 shell pairs
          la=2 lb=0:   2546 shell pairs
          la=2 lb=1:   1766 shell pairs
          la=2 lb=2:    185 shell pairs

Checking whether 4 symmetric matrices of dimension 571 fit in memory
:Max Core in MB      =   3840.00
 MB in use           =     40.29
 MB left             =   3799.71
 MB needed           =      4.98
 Data fit in memory  = YES
Calculating RI/J V-Matrix + Cholesky decomp.... done (  0.2 sec)
Calculating Nuclear repulsion               ... done (  0.0 sec) ENN=   2312.645022428391 Eh

Diagonalization of the overlap matrix:
Smallest eigenvalue                        ... 8.807e-07
Time for diagonalization                   ...    0.083 sec
Threshold for overlap eigenvalues          ... 1.000e-07
Number of eigenvalues below threshold      ... 0

IMPORTANT:
Smallest eigenvalue of S below the DiffSThresh (1.000e-06) while
Thresh>1e-12 and/or TCut>1e-13! In order to avoid SCF convergence issues,
Thresh will be set to at least 1e-12 and TCut to at least 1e-13.
This can be turned off by adding %SCF DiffSThresh -1 END to the input.

Time for construction of square roots      ...    0.046 sec
Total time needed                          ...    0.150 sec

-------------------
DFT GRID GENERATION
-------------------

General Integration Accuracy     IntAcc      ... 4.388
Radial Grid Type                 RadialGrid  ... OptM3 with GC (2021)
Angular Grid (max. ang.)         AngularGrid ... 4 (Lebedev-302)
Angular grid pruning method      GridPruning ... 4 (adaptive)
Weight generation scheme         WeightScheme... mBecke (2022)
Basis function cutoff            BFCut       ... 1.0000e-11
Integration weight cutoff        WCut        ... 1.0000e-14
Partially contracted basis set               ... off
Rotationally invariant grid construction     ... off
Angular grids for H and He will be reduced by one unit
Diffuse basis detected: some atoms will have their outermost
                        angular grid increased by 1.

Total number of grid points                  ...   233636
Total number of batches                      ...     3677
Average number of points per batch           ...       63
Average number of grid points per atom       ...     4581

--------------------
COSX GRID GENERATION
--------------------

GRIDX 1
-------
General Integration Accuracy     IntAcc      ... 3.816
Radial Grid Type                 RadialGrid  ... OptM3 with GC (2021)
Angular Grid (max. ang.)         AngularGrid ... 1 (Lebedev-50)
Angular grid pruning method      GridPruning ... 4 (adaptive)
Weight generation scheme         WeightScheme... mBecke (2022)
Basis function cutoff            BFCut       ... 1.0000e-11
Integration weight cutoff        WCut        ... 1.0000e-14
Partially contracted basis set               ... on
Rotationally invariant grid construction     ... off
Angular grids for H and He will be reduced by one unit
Diffuse basis detected: some atoms will have their outermost
                        angular grid increased by 1.

Total number of grid points                  ...    30798
Total number of batches                      ...      265
Average number of points per batch           ...      116
Average number of grid points per atom       ...      604
UseSFitting                                  ... on

GRIDX 2
-------
General Integration Accuracy     IntAcc      ... 4.020
Radial Grid Type                 RadialGrid  ... OptM3 with GC (2021)
Angular Grid (max. ang.)         AngularGrid ... 2 (Lebedev-110)
Angular grid pruning method      GridPruning ... 4 (adaptive)
Weight generation scheme         WeightScheme... mBecke (2022)
Basis function cutoff            BFCut       ... 1.0000e-11
Integration weight cutoff        WCut        ... 1.0000e-14
Partially contracted basis set               ... on
Rotationally invariant grid construction     ... off
Angular grids for H and He will be reduced by one unit
Diffuse basis detected: some atoms will have their outermost
                        angular grid increased by 1.

Total number of grid points                  ...    66034
Total number of batches                      ...      539
Average number of points per batch           ...      122
Average number of grid points per atom       ...     1295
UseSFitting                                  ... on

GRIDX 3
-------
General Integration Accuracy     IntAcc      ... 4.338
Radial Grid Type                 RadialGrid  ... OptM3 with GC (2021)
Angular Grid (max. ang.)         AngularGrid ... 3 (Lebedev-194)
Angular grid pruning method      GridPruning ... 4 (adaptive)
Weight generation scheme         WeightScheme... mBecke (2022)
Basis function cutoff            BFCut       ... 1.0000e-11
Integration weight cutoff        WCut        ... 1.0000e-14
Partially contracted basis set               ... on
Rotationally invariant grid construction     ... off
Angular grids for H and He will be reduced by one unit
Diffuse basis detected: some atoms will have their outermost
                        angular grid increased by 1.

Total number of grid points                  ...   142819
Total number of batches                      ...     1142
Average number of points per batch           ...      125
Average number of grid points per atom       ...     2800
UseSFitting                                  ... on
Grids setup in   6.0 sec
Initializing property integral containers    ... done (  0.0 sec)

SHARK setup successfully completed in   6.9 seconds

Maximum memory used throughout the entire STARTUP-calculation: 84.8 MB


           ************************************************************
           *        Program running with 8 parallel MPI-processes     *
           *              working on a common directory               *
           ************************************************************
-------------------------------------------------------------------------------
                                 ORCA GUESS
                   Start orbitals & Density for SCF / CASSCF
-------------------------------------------------------------------------------

------------
SCF SETTINGS
------------
Hamiltonian:
 Density Functional     Method          .... DFT(GTOs)
 Exchange Functional    Exchange        .... WB97X-D3
 Correlation Functional Correlation     .... WB97X-D3
 Gradients option       PostSCFGGA      .... off
 Hybrid DFT is turned on
   Fraction HF Exchange ScalHFX         ....  0.195728
   Scaling of DF-GGA-X  ScalDFX         ....  0.000000
   Scaling of DF-GGA-C  ScalDFC         ....  1.000000
   Scaling of DF-LDA-C  ScalLDAC        ....  1.000000
   Perturbative correction              ....  0.000000
 Long-range corrected/Screened/Range-Separated Hybrid DFT is turned on
   Amount of maximum screened exact exchange              ....  0.804272
   Range separation parameter mu (erf(mu*r12)/r12)        ....  0.250000
 RI-approximation to the Coulomb term is turned on
   Number of AuxJ basis functions       .... 1475
   RIJ-COSX (HFX calculated with COS-X)).... on


General Settings:
 Integral files         IntName         .... input
 Hartree-Fock type      HFTyp           .... RHF
 Total Charge           Charge          ....    0
 Multiplicity           Mult            ....    1
 Number of Electrons    NEL             ....  184
 Basis Dimension        Dim             ....  571
 Nuclear Repulsion      ENuc            ....   2312.6450224284 Eh

Convergence Acceleration:
 AO-DIIS                CNVDIIS         .... on
   Start iteration      DIISMaxIt       ....    12
   Startup error        DIISStart       ....  0.200000
   # of expansion vecs  DIISMaxEq       ....     5
   Bias factor          DIISBfac        ....   1.050
   Max. coefficient     DIISMaxC        ....  10.000
 MO-DIIS                CNVKDIIS        .... off
 Trust-Rad. Augm. Hess. CNVTRAH         .... auto
   Auto Start mean grad. ratio tolernc. ....  1.125000
   Auto Start start iteration           ....    50
   Auto Start num. interpolation iter.  ....    10
   Max. Number of Micro iterations      ....    24
   Max. Number of Macro iterations      .... Maxiter - #DIIS iter
   Number of Davidson start vectors     ....     2
   Converg. threshold    (grad. norm)   ....   1.000e-05
   Grad. Scal. Fac. for Micro threshold ....   0.100
   Minimum threshold for Micro iter.    ....   1.000e-02
   NR start threshold (gradient norm)   ....   1.000e-04
   Initial trust radius                 ....   0.400
   Minimum AH scaling param. (alpha)    ....   1.000
   Maximum AH scaling param. (alpha)    .... 1000.000
   Quad. conv. algorithm                .... NR
   White noise on init. David. guess    .... on
   Maximum white noise                  ....   0.010
   Pseudo random numbers                .... off
   Inactive MOs                         .... canonical
   Orbital update algorithm             .... Taylor
   Preconditioner                       .... Diag
   Full preconditioner red. dimension   ....   250
 SOSCF                 CNVSOSCF           .... on
   Start iteration     SOSCFMaxIt         ....   150
   Startup grad/error  SOSCFStart         ....  0.003300
   Hessian update      SOSCFHessUp        .... L-BFGS
   Autom. constraints  SOSCFAutoConstrain .... off
 Level Shifting         CNVShift        .... on
   Level shift para.    LevelShift      ....    0.2500
   Turn off err/grad.   ShiftErr        ....    0.0010
 Zerner damping         CNVZerner       .... off
 Static damping         CNVDamp         .... on
   Fraction old density DampFac         ....    0.7000
   Max. Damping (<1)    DampMax         ....    0.9800
   Min. Damping (>=0)   DampMin         ....    0.0000
   Turn off err/grad.   DampErr         ....    0.1000

SCF Procedure:
 Maximum # iterations   MaxIter         ....   125
 SCF integral mode      SCFMode         .... Direct
   Integral package                     .... SHARK and LIBINT hybrid scheme
 Reset frequency        DirectResetFreq ....    20
 Integral Threshold     Thresh          ....  1.000e-12 Eh
 Primitive CutOff       TCut            ....  1.000e-13 Eh

Convergence Tolerance:
 Convergence Check Mode ConvCheckMode   .... Total+1el-Energy
 Convergence forced     ConvForced      .... 0
 Energy Change          TolE            ....  1.000e-08 Eh
 1-El. energy change                    ....  1.000e-05 Eh
 Orbital Gradient       TolG            ....  1.000e-05
 Orbital Rotation angle TolX            ....  1.000e-05
 DIIS Error             TolErr          ....  5.000e-07

------------------------------
INITIAL GUESS: MODEL POTENTIAL
------------------------------
Loading Hartree-Fock densities                     ... done
Calculating cut-offs                               ... done
Initializing the effective Hamiltonian             ... done
Setting up the integral package (SHARK)            ... done
Starting the Coulomb interaction                   ... done (   1.0 sec)
Making the grid                                    ... done (   0.7 sec)
Mapping shells                                     ... done
Starting the XC term evaluation                    ... done (   0.5 sec)
  promolecular density results
     # of electrons  =    183.990466961
     EX              =   -155.508983454
     EC              =     -6.232892110
     EX+EC           =   -161.741875565
Transforming the Hamiltonian                       ... done (   0.0 sec)
Diagonalizing the Hamiltonian                      ... done (   0.1 sec)
Back transforming the eigenvectors                 ... done (   0.0 sec)
Now organizing SCF variables                       ... done
                      ------------------
                      INITIAL GUESS DONE (   2.5 sec)
                      ------------------
             **** ENERGY FILE WAS UPDATED (input.en.tmp) ****
Finished Guess after   2.9 sec
Maximum memory used throughout the entire GUESS-calculation: 50.6 MB


           ************************************************************
           *        Program running with 8 parallel MPI-processes     *
           *              working on a common directory               *
           ************************************************************

-------------------------------------------------------------------------------------------
                                      ORCA LEAN-SCF
                              memory conserving SCF solver
-------------------------------------------------------------------------------------------

----------------------------------------D-I-I-S--------------------------------------------
Iteration    Energy (Eh)           Delta-E    RMSDP     MaxDP     DIISErr   Damp  Time(sec)
-------------------------------------------------------------------------------------------
               ***  Starting incremental Fock matrix formation  ***
    1    -1354.4752969077389935     0.00e+00  3.99e-02  1.76e+00  1.81e-01  0.700  40.8
    2    -1354.7262654157020734    -2.51e-01  3.35e-02  1.51e+00  9.61e-02  0.700  20.0
                               ***Turning on AO-DIIS***
    3    -1354.8548996226668351    -1.29e-01  2.74e-02  1.39e+00  5.05e-02  0.700  19.1
    4    -1354.9310591496073357    -7.62e-02  7.59e-02  3.66e+00  3.17e-02  0.000  18.6
    5    -1355.0944057522870025    -1.63e-01  1.03e-02  5.29e-01  4.17e-03  0.000  19.2
                              *** Initializing SOSCF ***
---------------------------------------S-O-S-C-F--------------------------------------
Iteration    Energy (Eh)           Delta-E    RMSDP     MaxDP     MaxGrad    Time(sec)
--------------------------------------------------------------------------------------
    6    -1355.0948939805284681    -4.88e-04  5.29e-03  2.33e-01  2.28e-03    18.0
               *** Restarting incremental Fock matrix formation ***
    7    -1355.0951055561999965    -2.12e-04  2.69e-03  1.10e-01  1.59e-03    40.4
    8    -1355.0951813970655166    -7.58e-05  3.04e-03  1.05e-01  6.58e-04    33.1
    9    -1355.0951985196729765    -1.71e-05  1.05e-03  4.96e-02  3.07e-04    32.5
   10    -1355.0952074848437405    -8.97e-06  2.81e-04  1.02e-02  8.06e-05    31.0
   11    -1355.0952078037653337    -3.19e-07  1.12e-04  5.75e-03  2.49e-05    28.2
   12    -1355.0952078650548174    -6.13e-08  1.31e-04  5.54e-03  1.62e-05    25.7
   13    -1355.0952078806740246    -1.56e-08  1.07e-04  5.05e-03  2.07e-06    25.0
                  *** Gradient check signals convergence ***

               *****************************************************
               *                     SUCCESS                       *
               *           SCF CONVERGED AFTER  13 CYCLES          *
               *****************************************************

Recomputing exchange energy using gridx3       ... done (   75.627 sec)
Old exchange energy                            :    -50.807655263 Eh
New exchange energy                            :    -50.807632025 Eh
Exchange energy change after final integration :      0.000023238 Eh
Total energy after final integration           :  -1355.095184619 Eh
             **** ENERGY FILE WAS UPDATED (input.en.tmp) ****

----------------
TOTAL SCF ENERGY
----------------

Total Energy       :      -1355.09518461903212 Eh          -36874.01461 eV

Components:
Nuclear Repulsion  :       2312.64502242839080 Eh           62930.27037 eV
Electronic Energy  :      -3667.74023028521469 Eh          -99804.28562 eV
One Electron Energy:      -6446.59658356048021 Eh         -175420.81126 eV
Two Electron Energy:       2778.85635327526552 Eh           75616.52564 eV

Virial components:
Potential Energy   :      -2702.74090225460441 Eh          -73545.31892 eV
Kinetic Energy     :       1347.64571763557228 Eh           36671.30431 eV
Virial Ratio       :          2.00552776362955

DFT components:
N(Alpha)           :       92.000111149160 electrons
N(Beta)            :       92.000111149160 electrons
N(Total)           :      184.000222298319 electrons
E(XC)              :     -114.884974355414 Eh       

---------------
SCF CONVERGENCE
---------------

  Last Energy change         ...    1.5619e-08  Tolerance :   1.0000e-08
  Last MAX-Density change    ...    5.0539e-03  Tolerance :   1.0000e-07
  Last RMS-Density change    ...    1.0733e-04  Tolerance :   5.0000e-09
  Last DIIS Error            ...    2.2803e-03  Tolerance :   5.0000e-07
  Last Orbital Gradient      ...    2.0652e-06  Tolerance :   1.0000e-05
  Last Orbital Rotation      ...    6.1312e-06  Tolerance :   1.0000e-05


----------------
ORBITAL ENERGIES
----------------

  NO   OCC          E(Eh)            E(eV) 
   0   2.0000     -88.989620     -2421.5307 
   1   2.0000     -19.268116      -524.3121 
   2   2.0000     -19.267494      -524.2952 
   3   2.0000     -14.428115      -392.6090 
   4   2.0000     -10.365213      -282.0518 
   5   2.0000     -10.363967      -282.0179 
   6   2.0000     -10.327783      -281.0333 
   7   2.0000     -10.310858      -280.5727 
   8   2.0000     -10.310638      -280.5667 
   9   2.0000     -10.302479      -280.3447 
  10   2.0000     -10.301086      -280.3068 
  11   2.0000     -10.297589      -280.2117 
  12   2.0000     -10.294659      -280.1319 
  13   2.0000     -10.289240      -279.9845 
  14   2.0000     -10.288016      -279.9511 
  15   2.0000     -10.286902      -279.9208 
  16   2.0000     -10.282266      -279.7947 
  17   2.0000     -10.279582      -279.7217 
  18   2.0000     -10.274507      -279.5836 
  19   2.0000     -10.274370      -279.5798 
  20   2.0000     -10.273506      -279.5563 
  21   2.0000     -10.263413      -279.2817 
  22   2.0000      -8.082280      -219.9300 
  23   2.0000      -6.925956      -188.4648 
  24   2.0000      -6.833980      -185.9621 
  25   2.0000      -6.036442      -164.2599 
  26   2.0000      -6.031899      -164.1363 
  27   2.0000      -6.029934      -164.0828 
  28   2.0000      -1.198042       -32.6004 
  29   2.0000      -1.127516       -30.6813 
  30   2.0000      -1.044474       -28.4216 
  31   2.0000      -1.005903       -27.3720 
  32   2.0000      -0.950444       -25.8629 
  33   2.0000      -0.938302       -25.5325 
  34   2.0000      -0.879570       -23.9343 
  35   2.0000      -0.859645       -23.3921 
  36   2.0000      -0.853768       -23.2322 
  37   2.0000      -0.845129       -22.9971 
  38   2.0000      -0.841583       -22.9006 
  39   2.0000      -0.832864       -22.6634 
  40   2.0000      -0.813161       -22.1272 
  41   2.0000      -0.802800       -21.8453 
  42   2.0000      -0.757978       -20.6256 
  43   2.0000      -0.746789       -20.3212 
  44   2.0000      -0.720405       -19.6032 
  45   2.0000      -0.692907       -18.8550 
  46   2.0000      -0.679443       -18.4886 
  47   2.0000      -0.666904       -18.1474 
  48   2.0000      -0.666475       -18.1357 
  49   2.0000      -0.655559       -17.8387 
  50   2.0000      -0.634416       -17.2633 
  51   2.0000      -0.611328       -16.6351 
  52   2.0000      -0.604089       -16.4381 
  53   2.0000      -0.583763       -15.8850 
  54   2.0000      -0.578667       -15.7463 
  55   2.0000      -0.564704       -15.3664 
  56   2.0000      -0.561017       -15.2660 
  57   2.0000      -0.556193       -15.1348 
  58   2.0000      -0.553566       -15.0633 
  59   2.0000      -0.549839       -14.9619 
  60   2.0000      -0.531171       -14.4539 
  61   2.0000      -0.516001       -14.0411 
  62   2.0000      -0.512536       -13.9468 
  63   2.0000      -0.510035       -13.8788 
  64   2.0000      -0.508079       -13.8255 
  65   2.0000      -0.506800       -13.7907 
  66   2.0000      -0.503267       -13.6946 
  67   2.0000      -0.493702       -13.4343 
  68   2.0000      -0.487414       -13.2632 
  69   2.0000      -0.483416       -13.1544 
  70   2.0000      -0.481456       -13.1011 
  71   2.0000      -0.476479       -12.9657 
  72   2.0000      -0.475186       -12.9305 
  73   2.0000      -0.472855       -12.8670 
  74   2.0000      -0.466980       -12.7072 
  75   2.0000      -0.465171       -12.6580 
  76   2.0000      -0.457198       -12.4410 
  77   2.0000      -0.451313       -12.2809 
  78   2.0000      -0.448051       -12.1921 
  79   2.0000      -0.445861       -12.1325 
  80   2.0000      -0.437053       -11.8928 
  81   2.0000      -0.435236       -11.8434 
  82   2.0000      -0.420310       -11.4372 
  83   2.0000      -0.415253       -11.2996 
  84   2.0000      -0.409703       -11.1486 
  85   2.0000      -0.392568       -10.6823 
  86   2.0000      -0.379193       -10.3184 
  87   2.0000      -0.341751        -9.2995 
  88   2.0000      -0.339334        -9.2337 
  89   2.0000      -0.325264        -8.8509 
  90   2.0000      -0.315315        -8.5802 
  91   2.0000      -0.275564        -7.4985 
  92   0.0000       0.016602         0.4518 
  93   0.0000       0.051995         1.4149 
  94   0.0000       0.061711         1.6792 
  95   0.0000       0.066804         1.8178 
  96   0.0000       0.069154         1.8818 
  97   0.0000       0.073211         1.9922 
  98   0.0000       0.077004         2.0954 
  99   0.0000       0.082304         2.2396 
 100   0.0000       0.084244         2.2924 
 101   0.0000       0.084845         2.3087 
 102   0.0000       0.085918         2.3379 
*Only the first 10 virtual orbitals were printed.

                    ********************************
                    * MULLIKEN POPULATION ANALYSIS *
                    ********************************

-----------------------
MULLIKEN ATOMIC CHARGES
-----------------------
   0 C :   -0.413257
   1 C :   -0.029176
   2 C :   -0.097504
   3 C :   -0.351045
   4 C :    0.089739
   5 C :   -0.001757
   6 H :    0.143237
   7 H :    0.146918
   8 H :    0.136655
   9 H :    0.145782
  10 B :    0.064149
  11 H :   -0.010497
  12 C :   -0.960100
  13 C :    0.368592
  14 C :   -0.281722
  15 H :    0.174763
  16 C :   -0.213898
  17 H :    0.165141
  18 H :    0.189194
  19 H :    0.049000
  20 B :    0.795314
  21 O :   -0.374938
  22 O :   -0.370749
  23 C :   -0.510146
  24 C :   -0.055069
  25 C :   -0.441802
  26 H :    0.170930
  27 H :    0.164604
  28 H :    0.169999
  29 C :   -0.176936
  30 H :    0.174526
  31 H :    0.187394
  32 H :    0.162414
  33 C :   -0.423472
  34 H :    0.165611
  35 H :    0.165179
  36 H :    0.177160
  37 C :   -0.309250
  38 H :    0.165526
  39 H :    0.172825
  40 H :    0.168514
  41 N :   -0.056510
  42 C :   -0.244589
  43 H :    0.133071
  44 H :    0.148531
  45 H :    0.159419
  46 C :   -0.236025
  47 H :    0.147312
  48 H :    0.135083
  49 H :    0.157146
  50 S :    0.164716
Sum of atomic charges:    0.0000000

--------------------------------
MULLIKEN REDUCED ORBITAL CHARGES
--------------------------------
  0 C s       :     3.406718  s :     3.406718
      pz      :     1.018972  p :     2.971271
      px      :     0.924267
      py      :     1.028033
      dz2     :     0.003167  d :     0.035269
      dxz     :     0.006573
      dyz     :     0.003281
      dx2y2   :     0.011596
      dxy     :     0.010651

  1 C s       :     2.546822  s :     2.546822
      pz      :     1.006817  p :     3.446128
      px      :     1.358793
      py      :     1.080518
      dz2     :     0.002920  d :     0.036226
      dxz     :     0.005503
      dyz     :     0.004932
      dx2y2   :     0.009701
      dxy     :     0.013170

  2 C s       :     3.313674  s :     3.313674
      pz      :     0.988211  p :     2.752036
      px      :     0.703883
      py      :     1.059942
      dz2     :     0.003215  d :     0.031794
      dxz     :     0.004613
      dyz     :     0.005583
      dx2y2   :     0.007964
      dxy     :     0.010420

  3 C s       :     3.350978  s :     3.350978
      pz      :     0.891008  p :     2.941214
      px      :     1.209314
      py      :     0.840891
      dz2     :     0.004371  d :     0.058852
      dxz     :     0.008395
      dyz     :     0.008558
      dx2y2   :     0.019316
      dxy     :     0.018212

  4 C s       :     2.779861  s :     2.779861
      pz      :     1.051272  p :     3.096550
      px      :     1.060650
      py      :     0.984628
      dz2     :     0.002904  d :     0.033850
      dxz     :     0.005012
      dyz     :     0.004671
      dx2y2   :     0.009494
      dxy     :     0.011768

  5 C s       :     3.007293  s :     3.007293
      pz      :     0.990382  p :     2.958311
      px      :     1.046625
      py      :     0.921304
      dz2     :     0.004068  d :     0.036152
      dxz     :     0.003166
      dyz     :     0.006735
      dx2y2   :     0.012119
      dxy     :     0.010063

  6 H s       :     0.844492  s :     0.844492
      pz      :     0.003115  p :     0.012271
      px      :     0.002261
      py      :     0.006894

  7 H s       :     0.839837  s :     0.839837
      pz      :     0.003100  p :     0.013245
      px      :     0.005271
      py      :     0.004874

  8 H s       :     0.850661  s :     0.850661
      pz      :     0.003281  p :     0.012684
      px      :     0.004646
      py      :     0.004758

  9 H s       :     0.842017  s :     0.842017
      pz      :     0.002703  p :     0.012201
      px      :     0.007216
      py      :     0.002281

 10 B s       :     2.938632  s :     2.938632
      pz      :     0.615620  p :     1.939517
      px      :     0.659060
      py      :     0.664837
      dz2     :     0.010105  d :     0.057702
      dxz     :     0.014641
      dyz     :     0.009677
      dx2y2   :     0.009366
      dxy     :     0.013913

 11 H s       :     0.999081  s :     0.999081
      pz      :     0.005795  p :     0.011416
      px      :     0.002889
      py      :     0.002731

 12 C s       :     3.617041  s :     3.617041
      pz      :     1.034421  p :     3.308547
      px      :     1.101738
      py      :     1.172388
      dz2     :     0.010316  d :     0.034512
      dxz     :     0.005882
      dyz     :     0.006761
      dx2y2   :     0.005594
      dxy     :     0.005959

 13 C s       :     2.693240  s :     2.693240
      pz      :     0.970067  p :     2.901423
      px      :     0.952589
      py      :     0.978768
      dz2     :     0.009352  d :     0.036745
      dxz     :     0.009327
      dyz     :     0.009158
      dx2y2   :     0.003093
      dxy     :     0.005815

 14 C s       :     3.206326  s :     3.206326
      pz      :     1.089528  p :     3.039370
      px      :     0.981849
      py      :     0.967993
      dz2     :     0.010220  d :     0.036026
      dxz     :     0.007126
      dyz     :     0.007443
      dx2y2   :     0.006566
      dxy     :     0.004670

 15 H s       :     0.812514  s :     0.812514
      pz      :     0.001960  p :     0.012723
      px      :     0.005291
      py      :     0.005472

 16 C s       :     3.087752  s :     3.087752
      pz      :     0.894709  p :     3.090688
      px      :     1.110074
      py      :     1.085905
      dz2     :     0.009612  d :     0.035458
      dxz     :     0.007505
      dyz     :     0.007536
      dx2y2   :     0.005231
      dxy     :     0.005573

 17 H s       :     0.822289  s :     0.822289
      pz      :     0.007420  p :     0.012570
      px      :     0.002564
      py      :     0.002586

 18 H s       :     0.798132  s :     0.798132
      pz      :     0.003582  p :     0.012674
      px      :     0.004509
      py      :     0.004583

 19 H s       :     0.944736  s :     0.944736
      pz      :     0.002779  p :     0.006265
      px      :     0.000962
      py      :     0.002524

 20 B s       :     2.545854  s :     2.545854
      pz      :     0.481859  p :     1.509909
      px      :     0.506601
      py      :     0.521449
      dz2     :     0.019663  d :     0.148923
      dxz     :     0.032354
      dyz     :     0.024094
      dx2y2   :     0.038534
      dxy     :     0.034279

 21 O s       :     3.781973  s :     3.781973
      pz      :     1.583145  p :     4.568220
      px      :     1.391351
      py      :     1.593724
      dz2     :     0.003820  d :     0.024745
      dxz     :     0.005705
      dyz     :     0.005695
      dx2y2   :     0.004885
      dxy     :     0.004639

 22 O s       :     3.741514  s :     3.741514
      pz      :     1.696666  p :     4.605250
      px      :     1.472537
      py      :     1.436047
      dz2     :     0.004222  d :     0.023985
      dxz     :     0.003668
      dyz     :     0.003634
      dx2y2   :     0.006418
      dxy     :     0.006043

 23 C s       :     3.333417  s :     3.333417
      pz      :     1.070454  p :     3.104872
      px      :     1.130751
      py      :     0.903667
      dz2     :     0.012608  d :     0.071858
      dxz     :     0.015397
      dyz     :     0.015971
      dx2y2   :     0.009647
      dxy     :     0.018235

 24 C s       :     3.322184  s :     3.322184
      pz      :     1.138011  p :     2.661061
      px      :     0.789736
      py      :     0.733314
      dz2     :     0.014122  d :     0.071824
      dxz     :     0.010036
      dyz     :     0.014804
      dx2y2   :     0.012240
      dxy     :     0.020622

 25 C s       :     3.275460  s :     3.275460
      pz      :     1.047383  p :     3.136136
      px      :     1.009444
      py      :     1.079309
      dz2     :     0.005563  d :     0.030205
      dxz     :     0.006065
      dyz     :     0.006792
      dx2y2   :     0.002695
      dxy     :     0.009090

 26 H s       :     0.817693  s :     0.817693
      pz      :     0.002341  p :     0.011377
      px      :     0.004143
      py      :     0.004894

 27 H s       :     0.824031  s :     0.824031
      pz      :     0.003400  p :     0.011365
      px      :     0.003339
      py      :     0.004626

 28 H s       :     0.818512  s :     0.818512
      pz      :     0.006042  p :     0.011489
      px      :     0.002541
      py      :     0.002906

 29 C s       :     3.130026  s :     3.130026
      pz      :     0.963058  p :     3.017037
      px      :     1.019042
      py      :     1.034938
      dz2     :     0.003525  d :     0.029873
      dxz     :     0.008221
      dyz     :     0.007549
      dx2y2   :     0.002059
      dxy     :     0.008518

 30 H s       :     0.814046  s :     0.814046
      pz      :     0.002558  p :     0.011428
      px      :     0.003525
      py      :     0.005345

 31 H s       :     0.800415  s :     0.800415
      pz      :     0.003772  p :     0.012191
      px      :     0.005471
      py      :     0.002947

 32 H s       :     0.826140  s :     0.826140
      pz      :     0.003886  p :     0.011447
      px      :     0.003772
      py      :     0.003788

 33 C s       :     3.296002  s :     3.296002
      pz      :     0.959103  p :     3.097270
      px      :     1.072621
      py      :     1.065546
      dz2     :     0.008131  d :     0.030200
      dxz     :     0.001673
      dyz     :     0.008724
      dx2y2   :     0.003004
      dxy     :     0.008667

 34 H s       :     0.823004  s :     0.823004
      pz      :     0.002178  p :     0.011385
      px      :     0.004798
      py      :     0.004409

 35 H s       :     0.823444  s :     0.823444
      pz      :     0.002266  p :     0.011378
      px      :     0.005809
      py      :     0.003303

 36 H s       :     0.811330  s :     0.811330
      pz      :     0.004510  p :     0.011510
      px      :     0.002309
      py      :     0.004691

 37 C s       :     3.220666  s :     3.220666
      pz      :     1.006848  p :     3.058392
      px      :     1.080699
      py      :     0.970845
      dz2     :     0.009338  d :     0.030192
      dxz     :     0.001128
      dyz     :     0.007175
      dx2y2   :     0.002775
      dxy     :     0.009775

 38 H s       :     0.823104  s :     0.823104
      pz      :     0.002177  p :     0.011370
      px      :     0.005190
      py      :     0.004004

 39 H s       :     0.815851  s :     0.815851
      pz      :     0.002288  p :     0.011324
      px      :     0.005555
      py      :     0.003481

 40 H s       :     0.820067  s :     0.820067
      pz      :     0.006216  p :     0.011419
      px      :     0.002276
      py      :     0.002926

 41 N s       :     3.224670  s :     3.224670
      pz      :     1.231391  p :     3.791638
      px      :     1.499538
      py      :     1.060710
      dz2     :     0.007724  d :     0.040202
      dxz     :     0.006020
      dyz     :     0.011184
      dx2y2   :     0.006613
      dxy     :     0.008661

 42 C s       :     3.227024  s :     3.227024
      pz      :     0.959662  p :     2.970389
      px      :     0.984386
      py      :     1.026340
      dz2     :     0.007844  d :     0.047177
      dxz     :     0.009597
      dyz     :     0.011264
      dx2y2   :     0.006950
      dxy     :     0.011522

 43 H s       :     0.856144  s :     0.856144
      pz      :     0.002643  p :     0.010785
      px      :     0.005494
      py      :     0.002648

 44 H s       :     0.840681  s :     0.840681
      pz      :     0.002583  p :     0.010788
      px      :     0.003136
      py      :     0.005068

 45 H s       :     0.829656  s :     0.829656
      pz      :     0.004989  p :     0.010925
      px      :     0.002349
      py      :     0.003587

 46 C s       :     3.217961  s :     3.217961
      pz      :     0.907595  p :     2.971448
      px      :     1.069021
      py      :     0.994832
      dz2     :     0.006660  d :     0.046617
      dxz     :     0.012845
      dyz     :     0.012272
      dx2y2   :     0.003556
      dxy     :     0.011283

 47 H s       :     0.841886  s :     0.841886
      pz      :     0.002137  p :     0.010801
      px      :     0.003765
      py      :     0.004899

 48 H s       :     0.854192  s :     0.854192
      pz      :     0.003159  p :     0.010725
      px      :     0.004970
      py      :     0.002596

 49 H s       :     0.830931  s :     0.830931
      pz      :     0.004122  p :     0.011923
      px      :     0.004222
      py      :     0.003579

 50 S s       :     6.000795  s :     6.000795
      pz      :     3.036801  p :     9.740575
      px      :     3.406502
      py      :     3.297273
      dz2     :     0.037179  d :     0.093914
      dxz     :     0.013510
      dyz     :     0.013376
      dx2y2   :     0.011852
      dxy     :     0.017997



                     *******************************
                     * LOEWDIN POPULATION ANALYSIS *
                     *******************************

----------------------
LOEWDIN ATOMIC CHARGES
----------------------
   0 C :   -0.159837
   1 C :   -0.143933
   2 C :   -0.151339
   3 C :   -0.050951
   4 C :   -0.164066
   5 C :   -0.137456
   6 H :    0.151638
   7 H :    0.178508
   8 H :    0.164275
   9 H :    0.151908
  10 B :   -0.202426
  11 H :    0.231408
  12 C :   -0.379813
  13 C :   -0.155749
  14 C :   -0.207485
  15 H :    0.188124
  16 C :   -0.324221
  17 H :    0.162764
  18 H :    0.165378
  19 H :    0.135996
  20 B :    0.056081
  21 O :   -0.306272
  22 O :   -0.349525
  23 C :   -0.057593
  24 C :   -0.055880
  25 C :   -0.302360
  26 H :    0.154570
  27 H :    0.154118
  28 H :    0.156949
  29 C :   -0.308505
  30 H :    0.163068
  31 H :    0.173216
  32 H :    0.152363
  33 C :   -0.301435
  34 H :    0.153616
  35 H :    0.154438
  36 H :    0.160919
  37 C :   -0.303784
  38 H :    0.151466
  39 H :    0.157284
  40 H :    0.159319
  41 N :   -0.411005
  42 C :   -0.218980
  43 H :    0.134135
  44 H :    0.142665
  45 H :    0.153229
  46 C :   -0.203129
  47 H :    0.143499
  48 H :    0.140220
  49 H :    0.166271
  50 S :    0.538318

-------------------------------
LOEWDIN REDUCED ORBITAL CHARGES
-------------------------------
  0 C s       :     2.878388  s :     2.878388
      pz      :     1.008373  p :     3.195934
      px      :     1.105419
      py      :     1.082142
      dz2     :     0.006602  d :     0.085514
      dxz     :     0.014328
      dyz     :     0.006287
      dx2y2   :     0.029931
      dxy     :     0.028367

  1 C s       :     2.869634  s :     2.869634
      pz      :     0.987212  p :     3.187681
      px      :     1.110918
      py      :     1.089550
      dz2     :     0.006101  d :     0.086619
      dxz     :     0.011227
      dyz     :     0.010154
      dx2y2   :     0.026090
      dxy     :     0.033046

  2 C s       :     2.853536  s :     2.853536
      pz      :     0.984534  p :     3.218172
      px      :     1.141209
      py      :     1.092429
      dz2     :     0.007024  d :     0.079631
      dxz     :     0.009231
      dyz     :     0.012529
      dx2y2   :     0.023193
      dxy     :     0.027653

  3 C s       :     2.819903  s :     2.819903
      pz      :     0.960109  p :     3.090104
      px      :     1.114956
      py      :     1.015039
      dz2     :     0.009837  d :     0.140945
      dxz     :     0.017518
      dyz     :     0.018152
      dx2y2   :     0.048814
      dxy     :     0.046625

  4 C s       :     2.863800  s :     2.863800
      pz      :     1.032512  p :     3.217281
      px      :     1.080448
      py      :     1.104321
      dz2     :     0.006294  d :     0.082985
      dxz     :     0.010189
      dyz     :     0.009692
      dx2y2   :     0.026192
      dxy     :     0.030617

  5 C s       :     2.879588  s :     2.879588
      pz      :     0.985124  p :     3.171030
      px      :     1.089686
      py      :     1.096220
      dz2     :     0.008165  d :     0.086838
      dxz     :     0.006339
      dyz     :     0.015078
      dx2y2   :     0.030384
      dxy     :     0.026872

  6 H s       :     0.807559  s :     0.807559
      pz      :     0.008867  p :     0.040804
      px      :     0.007490
      py      :     0.024447

  7 H s       :     0.778347  s :     0.778347
      pz      :     0.008961  p :     0.043145
      px      :     0.017460
      py      :     0.016723

  8 H s       :     0.793981  s :     0.793981
      pz      :     0.009382  p :     0.041744
      px      :     0.016248
      py      :     0.016114

  9 H s       :     0.807560  s :     0.807560
      pz      :     0.007375  p :     0.040531
      px      :     0.025777
      py      :     0.007379

 10 B s       :     2.666799  s :     2.666799
      pz      :     0.870502  p :     2.397561
      px      :     0.833754
      py      :     0.693305
      dz2     :     0.024355  d :     0.138066
      dxz     :     0.034954
      dyz     :     0.024628
      dx2y2   :     0.023912
      dxy     :     0.030216

 11 H s       :     0.741456  s :     0.741456
      pz      :     0.012127  p :     0.027135
      px      :     0.007742
      py      :     0.007266

 12 C s       :     2.931019  s :     2.931019
      pz      :     1.182258  p :     3.367028
      px      :     1.100595
      py      :     1.084176
      dz2     :     0.026285  d :     0.081766
      dxz     :     0.014121
      dyz     :     0.014841
      dx2y2   :     0.011149
[...]
127:   2621.85   0.011703   59.14  0.001393  ( 0.016900  0.017207 -0.028483)
128:   2973.90   0.017219   87.02  0.001807  (-0.033975  0.022469 -0.012151)
129:   2982.40   0.026817  135.52  0.002806  ( 0.025449 -0.040182 -0.023319)
130:   3080.95   0.001259    6.36  0.000128  (-0.003765 -0.002532 -0.010340)
131:   3084.09   0.003486   17.62  0.000353  ( 0.001751 -0.010517 -0.015462)
132:   3084.96   0.002041   10.32  0.000207  ( 0.007532  0.009698 -0.007464)
133:   3088.93   0.006232   31.49  0.000630  (-0.018994  0.015147 -0.006274)
134:   3102.21   0.009558   48.30  0.000961  ( 0.009699  0.017728 -0.023518)
135:   3106.67   0.004961   25.07  0.000498  (-0.016999 -0.014433  0.001021)
136:   3164.28   0.003836   19.39  0.000378  (-0.005099 -0.016536 -0.008882)
137:   3164.79   0.000639    3.23  0.000063  (-0.007258 -0.002907  0.001369)
138:   3166.02   0.001952    9.86  0.000192  (-0.010570 -0.006791  0.005878)
139:   3171.85   0.001515    7.65  0.000149  (-0.002677  0.008810 -0.008015)
140:   3173.70   0.004788   24.20  0.000471  (-0.008244  0.017843 -0.009191)
141:   3176.09   0.006199   31.33  0.000609  (-0.024412  0.003606  0.000344)
142:   3180.06   0.004419   22.33  0.000434  ( 0.010074  0.016283 -0.008184)
143:   3188.97   0.003014   15.23  0.000295  ( 0.004214 -0.014105 -0.008844)
144:   3191.45   0.002831   14.31  0.000277  (-0.007638 -0.006140 -0.013444)
145:   3197.08   0.001481    7.48  0.000145  ( 0.000376 -0.010197  0.006359)
146:   3210.73   0.000422    2.13  0.000041  ( 0.006166 -0.001376  0.001029)
147:   3220.92   0.001031    5.21  0.000100  ( 0.007895  0.006090 -0.000723)
148:   3233.88   0.004326   21.86  0.000417  ( 0.003661  0.019520 -0.004801)
149:   3242.97   0.004963   25.08  0.000478  (-0.021428 -0.002317 -0.003615)
150:   3255.12   0.000508    2.57  0.000049  (-0.001858 -0.002572 -0.006218)
151:   3268.96   0.000706    3.57  0.000067  (-0.000713 -0.000896  0.008130)
152:   3295.44   0.000143    0.72  0.000014  ( 0.000269  0.000815 -0.003573)

* The epsilon (eps) is given for a Dirac delta lineshape.
** The dipole moment derivative (T) already includes vibrational overlap.

The first frequency considered to be a vibration is 8
The total number of vibrations considered is 145


--------------------------
THERMOCHEMISTRY AT 298.15K
--------------------------

Temperature         ...   298.15 K
Pressure            ...     1.00 atm
Total Mass          ...   343.10 AMU
Quasi RRHO          ...     True
Cut-Off Frequency   ...     1.00 cm^-1

Throughout the following assumptions are being made:
  (1) The electronic state is orbitally nondegenerate
  (2) There are no thermally accessible electronically excited states
  (3) Hindered rotations indicated by low frequency modes are not
      treated as such but are treated as vibrations and this may
      cause some error
  (4) All equations used are the standard statistical mechanics
      equations for an ideal gas
  (5) All vibrations are strictly harmonic

freq.      36.68  E(vib)   ...       0.54 
freq.      38.44  E(vib)   ...       0.54 
freq.      52.56  E(vib)   ...       0.52 
freq.      67.14  E(vib)   ...       0.50 
freq.      79.47  E(vib)   ...       0.49 
freq.      89.35  E(vib)   ...       0.47 
freq.     104.03  E(vib)   ...       0.46 
freq.     115.11  E(vib)   ...       0.44 
freq.     136.76  E(vib)   ...       0.42 
freq.     155.99  E(vib)   ...       0.40 
freq.     171.92  E(vib)   ...       0.38 
freq.     188.48  E(vib)   ...       0.36 
freq.     212.43  E(vib)   ...       0.34 
freq.     227.40  E(vib)   ...       0.33 
freq.     229.56  E(vib)   ...       0.32 
freq.     245.43  E(vib)   ...       0.31 
freq.     270.01  E(vib)   ...       0.29 
freq.     288.69  E(vib)   ...       0.27 
freq.     294.59  E(vib)   ...       0.27 
freq.     299.43  E(vib)   ...       0.26 
freq.     311.28  E(vib)   ...       0.25 
freq.     330.50  E(vib)   ...       0.24 
freq.     337.88  E(vib)   ...       0.24 
freq.     345.69  E(vib)   ...       0.23 
freq.     368.69  E(vib)   ...       0.21 
freq.     374.68  E(vib)   ...       0.21 
freq.     379.20  E(vib)   ...       0.21 
freq.     396.96  E(vib)   ...       0.20 
freq.     435.98  E(vib)   ...       0.17 
freq.     463.99  E(vib)   ...       0.16 
freq.     472.06  E(vib)   ...       0.15 
freq.     496.59  E(vib)   ...       0.14 
freq.     527.59  E(vib)   ...       0.13 
freq.     537.85  E(vib)   ...       0.12 
freq.     540.45  E(vib)   ...       0.12 
freq.     556.24  E(vib)   ...       0.12 
freq.     576.55  E(vib)   ...       0.11 
freq.     587.63  E(vib)   ...       0.10 
freq.     593.37  E(vib)   ...       0.10 
freq.     612.40  E(vib)   ...       0.10 
freq.     614.86  E(vib)   ...       0.10 
freq.     681.68  E(vib)   ...       0.08 
freq.     709.76  E(vib)   ...       0.07 
freq.     738.58  E(vib)   ...       0.06 
freq.     741.49  E(vib)   ...       0.06 
freq.     761.24  E(vib)   ...       0.06 
freq.     765.22  E(vib)   ...       0.06 
freq.     775.31  E(vib)   ...       0.05 
freq.     787.34  E(vib)   ...       0.05 
freq.     797.69  E(vib)   ...       0.05 
freq.     826.02  E(vib)   ...       0.04 
freq.     881.95  E(vib)   ...       0.04 
freq.     884.12  E(vib)   ...       0.04 
freq.     890.71  E(vib)   ...       0.04 
freq.     895.74  E(vib)   ...       0.03 
freq.     900.02  E(vib)   ...       0.03 
freq.     948.41  E(vib)   ...       0.03 
freq.     948.64  E(vib)   ...       0.03 
freq.     950.18  E(vib)   ...       0.03 
freq.     979.51  E(vib)   ...       0.03 
freq.     985.16  E(vib)   ...       0.02 
freq.     994.06  E(vib)   ...       0.02 
freq.     996.56  E(vib)   ...       0.02 
freq.    1000.23  E(vib)   ...       0.02 
freq.    1013.30  E(vib)   ...       0.02 
freq.    1016.75  E(vib)   ...       0.02 
freq.    1025.38  E(vib)   ...       0.02 
freq.    1052.90  E(vib)   ...       0.02 
freq.    1077.08  E(vib)   ...       0.02 
freq.    1089.32  E(vib)   ...       0.02 
freq.    1095.95  E(vib)   ...       0.02 
freq.    1108.19  E(vib)   ...       0.02 
freq.    1121.33  E(vib)   ...       0.01 
freq.    1124.59  E(vib)   ...       0.01 
freq.    1150.65  E(vib)   ...       0.01 
freq.    1157.08  E(vib)   ...       0.01 
freq.    1175.46  E(vib)   ...       0.01 
freq.    1180.24  E(vib)   ...       0.01 
freq.    1193.60  E(vib)   ...       0.01 
freq.    1196.99  E(vib)   ...       0.01 
freq.    1205.97  E(vib)   ...       0.01 
freq.    1209.10  E(vib)   ...       0.01 
freq.    1233.83  E(vib)   ...       0.01 
freq.    1263.79  E(vib)   ...       0.01 
freq.    1266.01  E(vib)   ...       0.01 
freq.    1271.54  E(vib)   ...       0.01 
freq.    1290.91  E(vib)   ...       0.01 
freq.    1321.44  E(vib)   ...       0.01 
freq.    1322.09  E(vib)   ...       0.01 
freq.    1341.22  E(vib)   ...       0.01 
freq.    1381.51  E(vib)   ...       0.01 
freq.    1387.01  E(vib)   ...       0.00 
freq.    1396.38  E(vib)   ...       0.00 
freq.    1417.75  E(vib)   ...       0.00 
freq.    1419.50  E(vib)   ...       0.00 
freq.    1427.49  E(vib)   ...       0.00 
freq.    1437.36  E(vib)   ...       0.00 
freq.    1453.98  E(vib)   ...       0.00 
freq.    1478.84  E(vib)   ...       0.00 
freq.    1478.92  E(vib)   ...       0.00 
freq.    1484.79  E(vib)   ...       0.00 
freq.    1487.70  E(vib)   ...       0.00 
freq.    1488.70  E(vib)   ...       0.00 
freq.    1490.03  E(vib)   ...       0.00 
freq.    1495.38  E(vib)   ...       0.00 
freq.    1495.82  E(vib)   ...       0.00 
freq.    1502.85  E(vib)   ...       0.00 
freq.    1509.95  E(vib)   ...       0.00 
freq.    1510.12  E(vib)   ...       0.00 
freq.    1514.25  E(vib)   ...       0.00 
freq.    1517.41  E(vib)   ...       0.00 
freq.    1531.62  E(vib)   ...       0.00 
freq.    1533.00  E(vib)   ...       0.00 
freq.    1550.44  E(vib)   ...       0.00 
freq.    1588.02  E(vib)   ...       0.00 
freq.    1657.70  E(vib)   ...       0.00 
freq.    1686.06  E(vib)   ...       0.00 
freq.    1753.50  E(vib)   ...       0.00 
freq.    2211.31  E(vib)   ...       0.00 
freq.    2621.85  E(vib)   ...       0.00 
freq.    2973.90  E(vib)   ...       0.00 
freq.    2982.40  E(vib)   ...       0.00 
freq.    3080.95  E(vib)   ...       0.00 
freq.    3084.09  E(vib)   ...       0.00 
freq.    3084.96  E(vib)   ...       0.00 
freq.    3088.93  E(vib)   ...       0.00 
freq.    3102.21  E(vib)   ...       0.00 
freq.    3106.67  E(vib)   ...       0.00 
freq.    3164.28  E(vib)   ...       0.00 
freq.    3164.79  E(vib)   ...       0.00 
freq.    3166.02  E(vib)   ...       0.00 
freq.    3171.85  E(vib)   ...       0.00 
freq.    3173.70  E(vib)   ...       0.00 
freq.    3176.09  E(vib)   ...       0.00 
freq.    3180.06  E(vib)   ...       0.00 
freq.    3188.97  E(vib)   ...       0.00 
freq.    3191.45  E(vib)   ...       0.00 
freq.    3197.08  E(vib)   ...       0.00 
freq.    3210.73  E(vib)   ...       0.00 
freq.    3220.92  E(vib)   ...       0.00 
freq.    3233.88  E(vib)   ...       0.00 
freq.    3242.97  E(vib)   ...       0.00 
freq.    3255.12  E(vib)   ...       0.00 
freq.    3268.96  E(vib)   ...       0.00 
freq.    3295.44  E(vib)   ...       0.00 

------------
INNER ENERGY
------------

The inner energy is: U= E(el) + E(ZPE) + E(vib) + E(rot) + E(trans)
    E(el)   - is the total energy from the electronic structure calculation
              = E(kin-el) + E(nuc-el) + E(el-el) + E(nuc-nuc)
    E(ZPE)  - the the zero temperature vibrational energy from the frequency calculation
    E(vib)  - the the finite temperature correction to E(ZPE) due to population
              of excited vibrational states
    E(rot)  - is the rotational thermal energy
    E(trans)- is the translational thermal energy

Summary of contributions to the inner energy U:
Electronic energy                ...  -1355.12654497 Eh
Zero point energy                ...      0.43153947 Eh     270.79 kcal/mol
Thermal vibrational correction   ...      0.02024286 Eh      12.70 kcal/mol
Thermal rotational correction    ...      0.00141627 Eh       0.89 kcal/mol
Thermal translational correction ...      0.00141627 Eh       0.89 kcal/mol
-----------------------------------------------------------------------
Total thermal energy                  -1354.67193009 Eh


Summary of corrections to the electronic energy:
(perhaps to be used in another calculation)
Total thermal correction                  0.02307540 Eh      14.48 kcal/mol
Non-thermal (ZPE) correction              0.43153947 Eh     270.79 kcal/mol
-----------------------------------------------------------------------
Total correction                          0.45461487 Eh     285.27 kcal/mol


--------
ENTHALPY
--------

The enthalpy is H = U + kB*T
                kB is Boltzmann's constant
Total thermal energy              ...  -1354.67193009 Eh 
Thermal Enthalpy correction       ...      0.00094421 Eh       0.59 kcal/mol
-----------------------------------------------------------------------
Total Enthalpy                    ...  -1354.67098589 Eh


Note: Only C1 symmetry has been detected, increase convergence thresholds 
      if your molecule has a higher symmetry. Symmetry factor of 1.0 is   
      used for the rotational entropy correction. 
 

Note: Rotational entropy computed according to Herzberg 
Infrared and Raman Spectra, Chapter V,1, Van Nostrand Reinhold, 1945 
Point Group:  C1, Symmetry Number:   1  
Rotational constants in cm-1:     0.011526     0.005401     0.004414 

Vibrational entropy computed according to the QRRHO of S. Grimme
Chem.Eur.J. 2012 18 9955 using a reference frequency of 100.0 cm-1


-------
ENTROPY
-------

The entropy contributions are T*S = T*(S(el)+S(vib)+S(rot)+S(trans))
     S(el)   - electronic entropy
     S(vib)  - vibrational entropy
     S(rot)  - rotational entropy
     S(trans)- translational entropy
The entropies will be listed as multiplied by the temperature to get
units of energy

Electronic entropy                ...      0.00000000 Eh      0.00 kcal/mol
Vibrational entropy               ...      0.03485860 Eh     21.87 kcal/mol
Rotational entropy                ...      0.01664286 Eh     10.44 kcal/mol
Translational entropy             ...      0.02061729 Eh     12.94 kcal/mol
-----------------------------------------------------------------------
Final entropy term                ...      0.07211875 Eh     45.26 kcal/mol

In case the symmetry of your molecule has not been determined correctly
or in case you have a reason to use a different symmetry number we print 
out the resulting rotational entropy values for sn=1,12:

 non-linear molecules -----------------------------------
|  sn= 1 | S(rot)=       0.01664286 Eh     10.44 kcal/mol|
|  sn= 2 | S(rot)=       0.01598840 Eh     10.03 kcal/mol|
|  sn= 3 | S(rot)=       0.01560557 Eh      9.79 kcal/mol|
|  sn= 4 | S(rot)=       0.01533395 Eh      9.62 kcal/mol|
|  sn= 5 | S(rot)=       0.01512326 Eh      9.49 kcal/mol|
|  sn= 6 | S(rot)=       0.01495111 Eh      9.38 kcal/mol|
|  sn= 7 | S(rot)=       0.01480557 Eh      9.29 kcal/mol|
|  sn= 8 | S(rot)=       0.01467949 Eh      9.21 kcal/mol|
|  sn= 9 | S(rot)=       0.01456828 Eh      9.14 kcal/mol|
|  sn=10 | S(rot)=       0.01446880 Eh      9.08 kcal/mol|
|  sn=11 | S(rot)=       0.01437881 Eh      9.02 kcal/mol|
|  sn=12 | S(rot)=       0.01429666 Eh      8.97 kcal/mol|
 linear molecules ---------------------------------------
|  Dinfh | S(rot)=       0.01044616 Eh      6.56 kcal/mol|
|  Cinfv | S(rot)=       0.01110062 Eh      6.97 kcal/mol|
 --------------------------------------------------------


-------------------
GIBBS FREE ENERGY
-------------------

The Gibbs free energy is G = H - T*S

Total enthalpy                    ...  -1354.67098589 Eh 
Total entropy correction          ...     -0.07211875 Eh    -45.26 kcal/mol
-----------------------------------------------------------------------
Final Gibbs free energy         ...  -1354.74310464 Eh

For completeness - the Gibbs free energy minus the electronic energy
G-E(el)                           ...      0.38344033 Eh    240.61 kcal/mol

WARNING (PropertyFile): The property 'Hessian' exists multiple times for geometry 1 which is not allowed

Maximum memory used throughout the entire PROP-calculation: 448.0 MB

--------------------------------
SUGGESTED CITATIONS FOR THIS RUN
--------------------------------

Below you find a list of papers that are relevant to this ORCA run
We neither can nor want to force you to cite these papers, but we appreciate if you do
You receive ORCA, which is the product of decades of hard work by many enthusiastic individuals, for free
The only thing we kindly ask in return is that you cite our papers,
We deeply appreciate it, if you show your appreciation for ORCA by not just citing the generic ORCA reference.

Please note that relegating all ORCA citations to the supporting information does *not* help us.
SI sections are not indexed - citations you put there will not count into any citation statistics
But we need these citations in order to attract the funding resources that allow us to do what we are doing

Therefore, if you are a happy ORCA user, please consider citing a few of the papers listed below in the main body of your paper

In addition to the list printed below, the program has created the file input.bibtex that contains the list in bibtex format
You can import this file easily into all common literature databanks and citation aid programs


List of essential papers. We consider these as the minimum necessary citations

  1. Neese, F.
     Software update: the ORCA program system, version 6.0
     WIRES Comput. Molec. Sci. 2025 15(1), e70019
     doi.org/10.1002/wcms.7019

List of papers to cite with high priority. The work reported in these papers was absolutely
necessary for this run to complete.
Our perspective: the developers of density functionals and basis sets usually get cited in chemistry papers
Good! But without the algorithms to do something with them, the functionals or basis sets would not do anything.
Hence, in our opinion, the algorithm design and method developments papers are equally worthy of getting cited

  1. Neese, F.
     An improvement of the resolution of the identity approximation for the formation of the Coulomb matrix
     J. Comp. Chem. 2003 24(14), 1740-1747
     doi.org/10.1002/jcc.10318
  2. Neese, F.; Wennmohs, F.; Hansen, A.; Becker, U.
     Efficient, approximate and parallel Hartree-Fock and hybrid DFT calculations. A 'chain-of-spheres' algorithm for the Hartree-Fock exchange
     Chem. Phys. 2009 356(1-3), 98-109
     doi.org/10.1016/j.chemphys.2008.10.036
  3. Grimme, S.; Antony, J.; Ehrlich, S.; Krieg, H.
     A consistent and accurate ab initio parametrization of density functional dispersion correction (DFT-D) for the 94 elements H-Pu
     J. Chem. Phys. 2010 132 , 154104
     doi.org/10.1063/1.3382344
  4. Bykov, D.; Petrenko, T.; Izsak, R.; Kossmann, S.; Becker, U.; Valeev, E.; Neese, F.
     Efficient implementation of the analytic second derivatives of Hartree-Fock and hybrid DFT energies: a detailed analysis of different approximations
     Molec. Phys. 2015 113 , 1961-1977
     doi.org/10.1080/00268976.2015.1025114
  5. Helmich-Paris, B.; de Souza, B.; Neese, F.; Izsák, R.
     An improved chain of spheres for exchange algorithm
     J. Chem. Phys. 2021 155(10), 104109
     doi.org/10.1063/5.0058766
  6. Neese, F.
     The SHARK Integral Generation and Digestion System
     J. Comp. Chem. 2022 44(3), 381
     doi.org/10.1002/jcc.26942

List of suggested additional citations. These are papers that are important in the 'surrounding' of 
of this run, or papers that preceded the highly important papers. If you like your results we are grateful for a citation.

  1. Izsak, R.; Neese, F.
     An overlap fitted chain of spheres exchange method
     J. Chem. Phys. 2011 135 , 144105
     doi.org/10.1063/1.3646921
  2. Izsak, R.; Hansen, A.; Neese, F.
     The resolution of identity and chain of spheres approximations for the LPNO-CCSD singles Fock term
     Molec. Phys. 2012 110 , 2413-2417
     doi.org/10.1080/00268976.2012.687466
  3. Neese, F.
     The ORCA program system
     WIRES Comput. Molec. Sci. 2012 2(1), 73-78
     doi.org/10.1002/wcms.81
  4. Izsak, R.; Neese, F.; Klopper, W.
     Robust fitting techniques in the chain of spheres approximation to the Fock exchange: The role of the complementary space
     J. Chem. Phys. 2013 139 , 
     doi.org/10.1063/1.4819264
  5. Neese, F.
     Software update: the ORCA program system, version 4.0
     WIRES Comput. Molec. Sci. 2018 8(1), 1-6
     doi.org/10.1002/wcms.1327
  6. Neese, F.; Wennmohs, F.; Becker, U.; Riplinger, C.
     The ORCA quantum chemistry program package
     J. Chem. Phys. 2020 152(22), 224108
     doi.org/10.1063/5.0004608
  7. Neese, F.
     Software update: The ORCA program system—Version 5.0
     WIRES Comput. Molec. Sci. 2022 12(1), e1606
     doi.org/10.1002/wcms.1606

List of optional additional citations

  1. Neese, F.
     Approximate second-order SCF convergence for spin unrestricted wavefunctions
     Chem. Phys. Lett. 2000 325(1-3), 93-98
     doi.org/10.1016/s0009-2614(00)00662-x

Timings for individual modules:

Sum of individual times          ...     5508.595 sec (=  91.810 min)
Startup calculation              ...        7.709 sec (=   0.128 min)   0.1 %
SCF iterations                   ...      455.566 sec (=   7.593 min)   8.3 %
Property integrals               ...     1200.081 sec (=  20.001 min)  21.8 %
SCF Response                     ...     1204.653 sec (=  20.078 min)  21.9 %
Property calculations            ...     2640.587 sec (=  44.010 min)  47.9 %
WARNING (JSON): The property 'Hessian' exists multiple times for geometry 1 which is not allowed => overwriting previous entry!
                             ****ORCA TERMINATED NORMALLY****
TOTAL RUN TIME: 0 days 2 hours 54 minutes 55 seconds 190 msec
