
                                 *****************
                                 * O   R   C   A *
                                 *****************

                                            #,                                       
                                            ###                                      
                                            ####                                     
                                            #####                                    
                                            ######                                   
                                           ########,                                 
                                     ,,################,,,,,                         
                               ,,#################################,,                 
                          ,,##########################################,,             
                       ,#########################################, ''#####,          
                    ,#############################################,,   '####,        
                  ,##################################################,,,,####,       
                ,###########''''           ''''###############################       
              ,#####''   ,,,,##########,,,,          '''####'''          '####       
            ,##' ,,,,###########################,,,                        '##       
           ' ,,###''''                  '''############,,,                           
         ,,##''                                '''############,,,,        ,,,,,,###''
      ,#''                                            '''#######################'''  
     '                                                          ''''####''''         
             ,#######,   #######,   ,#######,      ##                                
            ,#'     '#,  ##    ##  ,#'     '#,    #''#        ,####,   ,####,        
            ##       ##  ##   ,#'  ##            #'  '#       #'       #'  '#        
            ##       ##  #######   ##           ,######,      #####,   #    #        
            '#,     ,#'  ##    ##  '#,     ,#' ,#      #,     #,   #   #,  ,#        
             '#######'   ##     ##  '#######'  #'      '#     '####' # '####'        



                #########################################################
                #                        -***-                          #
                #          Department of theory and spectroscopy        #
                #                                                       #
                #                      Frank Neese                      #
                #                                                       #
                #     Directorship, Architecture, Infrastructure        #
                #                    SHARK, DRIVERS                     #
                #        Core code/Algorithms in most modules           #
                #                                                       #
                #        Max Planck Institute fuer Kohlenforschung      #
                #                Kaiser Wilhelm Platz 1                 #
                #                 D-45470 Muelheim/Ruhr                 #
                #                      Germany                          #
                #                                                       #
                #                  All rights reserved                  #
                #                        -***-                          #
                #########################################################


                         Program Version 6.0.1  -  RELEASE   -


 With contributions from (in alphabetic order):
[Max-Planck-Institut fuer Kohlenforschung]                               
  Daniel Aravena         : Magnetic Suceptibility                        
  Michael Atanasov       : Ab Initio Ligand Field Theory (pilot matlab implementation)
  Alexander A. Auer      : GIAO ZORA, VPT2 properties, NMR spectrum      
  Ute Becker             : All parallelization in ORCA, NUMFREQ, NUMCALC 
  Giovanni Bistoni       : ED, misc. LED, open-shell LED, HFLD           
  Martin Brehm           : Molecular dynamics                            
  Dmytro Bykov           : pre 5.0 version of the SCF Hessian            
  Marcos Casanova-Páez   : Triplet and SCS-CIS(D). UHF-(DLPNO)-IP/EA/STEOM-CCSD. UHF-CVS-IP/STEOM-CCSD   
  Vijay G. Chilkuri      : MRCI spin determinant printing, contributions to CSF-ICE 
  Pauline Colinet        : FMM embedding                                 
  Dipayan Datta          : RHF DLPNO-CCSD density                        
  Achintya Kumar Dutta   : EOM-CC, STEOM-CC                              
  Nicolas Foglia         : Exact transition moments, OPA infrastructure, MCD improvements    
  Dmitry Ganyushin       : Spin-Orbit,Spin-Spin,Magnetic field MRCI      
  Miquel Garcia-Rates    : C-PCM and meta-GGA Hessian, CCSD/C-PCM, Gaussian charge scheme 
  Tiago L. C. Gouveia    : GS-ROHF, GS-ROCIS                             
  Yang Guo               : DLPNO-NEVPT2, F12-NEVPT2, CIM, IAO-localization        
  Andreas Hansen         : Spin unrestricted coupled pair/coupled cluster methods 
  Ingolf Harden          : AUTO-CI MPn and infrastructure                
  Benjamin Helmich-Paris : MC-RPA, TRAH-(SCF,CASSCF), AVAS, COSX integrals, SCF dyn. polar. 
  Lee Huntington         : MR-EOM, pCC                                   
  Robert Izsak           : Overlap fitted RIJCOSX, COSX-SCS-MP3, EOM     
  Riya Kayal             : Wick's Theorem for AUTO-CI, AUTO-CI UHF-CCSDT 
  Emily Kempfer          : AUTO-CI, RHF CISDT and CCSDT                  
  Christian Kollmar      : KDIIS, OOCD, Brueckner-CCSD(T), CCSD density, CASPT2, CASPT2-K, improved NEVPT2 
  Axel Koslowski         : Symmetry handling                             
  Simone Kossmann        : meta-GGA functionals, TD-DFT gradient, OOMP2, (MP2 Hessian; deprecated post 5.0) 
  Lucas Lang             : DCDCAS                                        
  Marvin Lechner         : AUTO-CI (C++ implementation), FIC-MRCC        
  Spencer Leger          : CASSCF response                               
  Dagmar Lenk            : GEPOL surface, SMD, ORCA-2-JSON               
  Dimitrios Liakos       : Extrapolation schemes; Compound Job, initial MDCI parallelization 
  Dimitrios Manganas     : Further ROCIS development; embedding schemes. LFT, Crystal Embedding 
  Dimitrios Pantazis     : SARC Basis sets                               
  Anastasios Papadopoulos: AUTO-CI, single reference methods and gradients 
  Taras Petrenko         : pre 6.0 DFT Hessian and TD-DFT gradient, (ASA, deprecated), ECA, 1-Electron XAS/XES, NRVS 
  Peter Pinski           : DLPNO-MP2, DLPNO-MP2 Gradient                 
  Christoph Reimann      : Effective Core Potentials                     
  Marius Retegan         : Local ZFS, SOC                                
  Christoph Riplinger    : Optimizer, TS searches, QM/MM, DLPNO-CCSD(T), (RO)-DLPNO pert. Triples 
  Michael Roemelt        : Original ROCIS implementation                 
  Masaaki Saitow         : Open-shell DLPNO-CCSD energy and density      
  Barbara Sandhoefer     : DKH picture change effects                    
  Kantharuban Sivalingam : CASSCF convergence/infrastructure, NEVPT2 and variants, FIC-MRCI 
  Bernardo de Souza      : ESD, SOC TD-DFT                               
  Georgi L. Stoychev     : AutoAux, RI-MP2 NMR, DLPNO-MP2 response, X2C  
  Van Anh Tran           : RI-MP2 g-tensors                              
  Willem Van den Heuvel  : Paramagnetic NMR                              
  Zikuan Wang            : NOTCH, Electric field optimization            
  Frank Wennmohs         : Technical directorship and infrastructure     
  Hang Xu                : AUTO-CI-Response properties                   
                                                                         
[FACCTs GmbH]                                                            
  Markus Bursch, Miquel Garcia-Rates, Christoph Riplinger, Bernardo de Souza, Georgi L. Stoychev 
                                                                 
  APM, Basis sets (HGBS, AHGBS, def-TZVP (Ac-Lr), def2-XVPD (La-Lu)), CI-OPT, improved COSX, DLPNO-Multilevel,           
  DOCKER, DRACO, updates on ESD, GOAT, IRC, LR-CPCM, MBIS, meta-GGA TD-DFT gradient, ML-optimized integration grids, 
  MM, NACMEs, nearIR, NEB, NEB-TS, NL-DFT gradient (VV10), 2- and 3-layer-ONIOM, interface openCOSMO-RS, QMMM,   
  Crystal-QMMM, SF, symmetry and pop. for TD-DFT, r2SCAN hybrids, SOLVATOR                                   
                                                                         
[Other institutions]                                                     
  V. Asgeirsson          : NEB                                           
  Christoph Bannwarth    : sTDA-DFT, sTD-DFT, PBEh-3c, B97-3c, D3        
  Sebastian Ehlert       : rSCAN, r2SCAN, r2SCAN-3c, D4, dhf basis sets  
  Marvin Friede          : D4 for Fr, Ra, Ac-Lr                          
  Lars Goerigk           : TD-DFT with DH, B97 family of functionals     
  Stefan Grimme          : VdW corrections, initial TS optimization, DFT functionals, gCP, sTDA/sTD-DF 
  Waldemar Hujo          : DFT-NL                                        
  H. Jonsson             : NEB                                           
  Holger Kruse           : gCP                                           
  Marcel Mueller         : wB97X-3c, vDZP basis set                      
  Hagen Neugebauer       : wr2SCAN                                       
  Tobias Risthaus        : range-separated hybrid DFT                    
  Lukas Wittmann         : regularized MP2, r2SCAN double-hybrids, wr2SCAN        
                                                                         
We gratefully acknowledge several colleagues who have allowed us to      
interface, adapt or use parts of their codes:                            
  Ed Valeev, F. Pavosevic, A. Kumar             : LibInt (2-el integral package), F12 methods 
  Garnet Chan, S. Sharma, J. Yang, R. Olivares  : DMRG                   
  Ulf Ekstrom                                   : XCFun DFT Library      
  Mihaly Kallay                                 : mrcc  (arbitrary order and MRCC methods)
  Frank Weinhold                                : gennbo (NPA and NBO analysis)           
  Simon Mueller                                 : openCOSMO-RS                            
  Christopher J. Cramer and Donald G. Truhlar   : smd solvation model                     
  S Lehtola, MJT Oliveira, MAL Marques          : LibXC Library                           
  Liviu Ungur et al                             : ANISO software                          


 Your calculation uses the libint2 library for the computation of 2-el integrals
 For citations please refer to: http://libint.valeyev.net

 Your ORCA version has been built with support for libXC version: 6.2.2
 For citations please refer to: https://libxc.gitlab.io

 This ORCA versions uses:
   CBLAS   interface :  Fast vector & matrix operations
   LAPACKE interface :  Fast linear algebra routines
   SCALAPACK package :  Parallel linear algebra routines
   Shared memory     :  Shared parallel matrices
   BLAS/LAPACK       :  OpenBLAS 0.3.27  USE64BITINT DYNAMIC_ARCH NO_AFFINITY Haswell SINGLE_THREADED
        Core in use  :  Haswell
   Copyright (c) 2011-2014, The OpenBLAS Project


NOTE: MaxCore=2560 MB was set to SCF,MP2,MDCI,CIPSI,MRCI and CIS
      => If you want to overwrite this, your respective input block should be placed after the MaxCore statement
Your calculation utilizes the atom-pairwise dispersion correction
with the zero-damping scheme (D30)


XCFun DFT library Copyright 2009-2010 Ulf Ekstrom and contributors.
See http://admol.org/xcfun for more information.
This is free software; see the source code for copying conditions.
There is ABSOLUTELY NO WARRANTY; not even for MERCHANTABILITY or FITNESS FOR A PARTICULAR PURPOSE.
For details see the documentation.
Scientific users of this library should cite U. Ekstrom, L. Visscher, R. Bast, A. J. Thorvaldsen and K. Ruud;
J.Chem.Theor.Comp. 2010, DOI: 10.1021/ct100117s
XCFun Version 0.99 

Warning: RI is on but no J-basis has been assigned. Assigning Def2/J (nothing to worry about!)
================================================================================

----- Orbital basis set information -----
Your calculation utilizes the basis: 6-31G**
   H-He, Li-Ne : W. J. Hehre, R. Ditchfield and J.A. Pople, J. Chem. Phys. 56, 2257 (1972).
                 Note: He and Ne are unpublished basis sets taken from the Gaussian program.
                 Note: Li and B from J. D. Dill and J. A. Pople, J. Chem. Phys. 62, 2921 (1975).
   Na - Ar     : M. M. Francl, W. J. Pietro, W. J. Hehre, J. S. Binkley, M. S. Gordon, 
                 D. J. DeFrees and J. A. Pople, J. Chem. Phys. 77, 3654 (1982).
   K - Zn      : V. A. Rassolov, J. A. Pople, M. A. Ratner, and T. L. Windus, J. Chem. Phys. 109, 1223 (1998).

----- AuxJ basis set information -----
Your calculation utilizes the auxiliary basis: def2/J
   F. Weigend, Phys. Chem. Chem. Phys. 8, 1057 (2006).

================================================================================
                                        WARNINGS
                       Please study these warnings very carefully!
================================================================================

WARNING: SinglePoint found together with IRC
         Switching on EnGrad - energy plus gradient calculation

================================================================================
                                       INPUT FILE
================================================================================
NAME = input.inp
|  1> # Automatically generated ORCA input
|  2> 
|  3> # Number of cores
|  4> %pal nprocs 24 end
|  5> # RAM per core
|  6> %maxcore 2560
|  7> 
|  8> ! wB97X-D3 
|  9> ! 6-31G** 
| 10> ! TightSCF 
| 11> ! NoSym 
| 12> ! IRC 
| 13> 
| 14> %geom
| 15>     Calc_Hess true
| 16>     end
| 17> 
| 18> 
| 19> *xyz 0 1 
| 20> C        -2.12133100     -1.92648200      1.30252400
| 21> C        -0.77669400     -1.57857300      1.23349400
| 22> C        -0.35758000     -0.31297500      0.80016200
| 23> C        -1.34619800      0.61994800      0.42196300
| 24> C        -2.69789700      0.26332600      0.50313100
| 25> C        -3.08869100     -0.99757700      0.93985700
| 26> H        -2.41028000     -2.91747000      1.63985400
| 27> H        -0.02997700     -2.31531800      1.51794200
| 28> H        -3.45283000      0.98728900      0.21840300
| 29> H        -4.14372100     -1.24876500      0.99519600
| 30> B         1.18114300      0.10317200      0.78874800
| 31> H         1.68697600     -1.04296200     -0.03528700
| 32> C         1.93636500      0.17494200      2.17443400
| 33> C         1.56091500     -0.31885400      3.42233100
| 34> C         2.37651100      0.26732300      4.40580300
| 35> H         0.75787400     -1.02478100      3.57941400
| 36> C         3.24074300      1.11958000      3.74224900
| 37> H         2.34139800      0.10513600      5.47316000
| 38> H         4.02386300      1.75955800      4.12366000
| 39> H         1.56090300      0.89747100     -0.02163200
| 40> B         2.54806600     -1.54548600      0.69254300
| 41> O         3.86356900     -1.30275900      0.41757100
| 42> O         2.30268600     -2.72939100      1.32534600
| 43> C         4.61856100     -2.25511100      1.20696200
| 44> C         3.57346800     -3.41143800      1.43741900
| 45> C         5.85039000     -2.65920900      0.40989300
| 46> H         6.51355300     -1.79744900      0.30064300
| 47> H         6.40099500     -3.44775000      0.93220600
| 48> H         5.58808600     -3.01534500     -0.58726000
| 49> C         5.03575800     -1.55288100      2.49764000
| 50> H         5.58855200     -0.64519400      2.24158800
| 51> H         4.17295000     -1.26447900      3.10113000
| 52> H         5.68634800     -2.19412900      3.09894200
| 53> C         3.64760700     -4.06530900      2.80958000
| 54> H         2.88750500     -4.84705200      2.88274400
| 55> H         4.62808900     -4.52639100      2.96419000
| 56> H         3.46677600     -3.33891000      3.60314600
| 57> C         3.59304000     -4.47230600      0.33733500
| 58> H         4.50353100     -5.07635000      0.37940000
| 59> H         2.73235700     -5.13245800      0.46760900
| 60> H         3.52110000     -4.01429800     -0.65276300
| 61> N         2.98236600      1.05924800      2.41250200
| 62> C         3.69355600      1.81144500      1.39846600
| 63> H         4.10563000      1.12788000      0.65346200
| 64> H         3.02488200      2.52026800      0.90351200
| 65> H         4.50697900      2.36011500      1.87595000
| 66> C        -1.02709200      2.13685500     -1.50991700
| 67> C        -1.07991700      3.04541300      0.90638600
| 68> C        -0.08603200      3.30008300     -1.87368900
| 69> C        -0.14848400      4.18151300      0.44364200
| 70> C        -0.31904700      4.54312300     -1.02555200
| 71> H        -0.20109600      3.52630900     -2.93987700
| 72> H         0.94622000      2.95939500     -1.72176800
| 73> H        -0.31226700      5.05558800      1.08420200
| 74> H         0.88667400      3.85250800      0.60365100
| 75> H         0.39171700      5.32831500     -1.30503200
| 76> H        -1.31928500      4.95440200     -1.20782900
| 77> N        -0.94951900      1.91615300     -0.04503800
| 78> C        -0.51501300      0.88612500     -2.24304200
| 79> H         0.48064600      0.60736500     -1.89267900
| 80> H        -1.18232300      0.03196700     -2.10431600
| 81> H        -0.45619700      1.09829100     -3.31522800
| 82> C        -2.44355500      2.42372800     -2.06189000
| 83> H        -2.40163700      2.50913900     -3.15310200
| 84> H        -3.12882300      1.60688500     -1.82377800
| 85> H        -2.87214300      3.35079200     -1.67897200
| 86> C        -2.51793500      3.58661500      1.08384500
| 87> H        -3.19122900      2.79437200      1.42037800
| 88> H        -2.52631200      4.37003000      1.84893100
| 89> H        -2.92849300      4.01790100      0.16992700
| 90> C        -0.59678700      2.60399500      2.29557300
| 91> H         0.42980600      2.23407900      2.26043200
| 92> H        -0.62724900      3.46070500      2.97610500
| 93> H        -1.22508800      1.81580700      2.71753700
| 94> *
| 95> 
| 96> 
| 97>                          ****END OF INPUT****
================================================================================

                     *******************************
                     * Energy+Gradient Calculation *
                     *******************************

---------------------------------
CARTESIAN COORDINATES (ANGSTROEM)
---------------------------------
  C     -2.121331   -1.926482    1.302524
  C     -0.776694   -1.578573    1.233494
  C     -0.357580   -0.312975    0.800162
  C     -1.346198    0.619948    0.421963
  C     -2.697897    0.263326    0.503131
  C     -3.088691   -0.997577    0.939857
  H     -2.410280   -2.917470    1.639854
  H     -0.029977   -2.315318    1.517942
  H     -3.452830    0.987289    0.218403
  H     -4.143721   -1.248765    0.995196
  B      1.181143    0.103172    0.788748
  H      1.686976   -1.042962   -0.035287
  C      1.936365    0.174942    2.174434
  C      1.560915   -0.318854    3.422331
  C      2.376511    0.267323    4.405803
  H      0.757874   -1.024781    3.579414
  C      3.240743    1.119580    3.742249
  H      2.341398    0.105136    5.473160
  H      4.023863    1.759558    4.123660
  H      1.560903    0.897471   -0.021632
  B      2.548066   -1.545486    0.692543
  O      3.863569   -1.302759    0.417571
  O      2.302686   -2.729391    1.325346
  C      4.618561   -2.255111    1.206962
  C      3.573468   -3.411438    1.437419
  C      5.850390   -2.659209    0.409893
  H      6.513553   -1.797449    0.300643
  H      6.400995   -3.447750    0.932206
  H      5.588086   -3.015345   -0.587260
  C      5.035758   -1.552881    2.497640
  H      5.588552   -0.645194    2.241588
  H      4.172950   -1.264479    3.101130
  H      5.686348   -2.194129    3.098942
  C      3.647607   -4.065309    2.809580
  H      2.887505   -4.847052    2.882744
  H      4.628089   -4.526391    2.964190
  H      3.466776   -3.338910    3.603146
  C      3.593040   -4.472306    0.337335
  H      4.503531   -5.076350    0.379400
  H      2.732357   -5.132458    0.467609
  H      3.521100   -4.014298   -0.652763
  N      2.982366    1.059248    2.412502
  C      3.693556    1.811445    1.398466
  H      4.105630    1.127880    0.653462
  H      3.024882    2.520268    0.903512
  H      4.506979    2.360115    1.875950
  C     -1.027092    2.136855   -1.509917
  C     -1.079917    3.045413    0.906386
  C     -0.086032    3.300083   -1.873689
  C     -0.148484    4.181513    0.443642
  C     -0.319047    4.543123   -1.025552
  H     -0.201096    3.526309   -2.939877
  H      0.946220    2.959395   -1.721768
  H     -0.312267    5.055588    1.084202
  H      0.886674    3.852508    0.603651
  H      0.391717    5.328315   -1.305032
  H     -1.319285    4.954402   -1.207829
  N     -0.949519    1.916153   -0.045038
  C     -0.515013    0.886125   -2.243042
  H      0.480646    0.607365   -1.892679
  H     -1.182323    0.031967   -2.104316
  H     -0.456197    1.098291   -3.315228
  C     -2.443555    2.423728   -2.061890
  H     -2.401637    2.509139   -3.153102
  H     -3.128823    1.606885   -1.823778
  H     -2.872143    3.350792   -1.678972
  C     -2.517935    3.586615    1.083845
  H     -3.191229    2.794372    1.420378
  H     -2.526312    4.370030    1.848931
  H     -2.928493    4.017901    0.169927
  C     -0.596787    2.603995    2.295573
  H      0.429806    2.234079    2.260432
  H     -0.627249    3.460705    2.976105
  H     -1.225088    1.815807    2.717537

----------------------------
CARTESIAN COORDINATES (A.U.)
----------------------------
  NO LB      ZA    FRAG     MASS         X           Y           Z
   0 C     6.0000    0    12.011   -4.008735   -3.640523    2.461414
   1 C     6.0000    0    12.011   -1.467739   -2.983071    2.330966
   2 C     6.0000    0    12.011   -0.675728   -0.591437    1.512087
   3 C     6.0000    0    12.011   -2.543946    1.171532    0.797395
   4 C     6.0000    0    12.011   -5.098286    0.497614    0.950780
   5 C     6.0000    0    12.011   -5.836780   -1.885147    1.776072
   6 H     1.0000    0     1.008   -4.554769   -5.513219    3.098875
   7 H     1.0000    0     1.008   -0.056648   -4.375317    2.868495
   8 H     1.0000    0     1.008   -6.524903    1.865706    0.412722
   9 H     1.0000    0     1.008   -7.830498   -2.359824    1.880648
  10 B     5.0000    0    10.810    2.232037    0.194967    1.490518
  11 H     1.0000    0     1.008    3.187923   -1.970913   -0.066683
  12 C     6.0000    0    12.011    3.659200    0.330592    4.109085
  13 C     6.0000    0    12.011    2.949702   -0.602547    6.467268
  14 C     6.0000    0    12.011    4.490955    0.505167    8.325761
  15 H     1.0000    0     1.008    1.432174   -1.936555    6.764112
  16 C     6.0000    0    12.011    6.124117    2.115700    7.071826
  17 H     1.0000    0     1.008    4.424601    0.198678   10.342773
  18 H     1.0000    0     1.008    7.603999    3.325083    7.792588
  19 H     1.0000    0     1.008    2.949679    1.695974   -0.040879
  20 B     5.0000    0    10.810    4.815147   -2.920545    1.308717
  21 O     8.0000    0    15.999    7.301087   -2.461858    0.789095
  22 O     8.0000    0    15.999    4.351446   -5.157802    2.504541
  23 C     6.0000    0    12.011    8.727815   -4.261542    2.280828
  24 C     6.0000    0    12.011    6.752876   -6.446684    2.716328
  25 C     6.0000    0    12.011   11.055635   -5.025177    0.774586
  26 H     1.0000    0     1.008   12.308831   -3.396686    0.568133
  27 H     1.0000    0     1.008   12.096128   -6.515303    1.761614
  28 H     1.0000    0     1.008   10.559952   -5.698176   -1.109761
  29 C     6.0000    0    12.011    9.516203   -2.934520    4.719856
  30 H     1.0000    0     1.008   10.560833   -1.219240    4.235987
  31 H     1.0000    0     1.008    7.885733   -2.389519    5.860286
  32 H     1.0000    0     1.008   10.745640   -4.146303    5.856152
  33 C     6.0000    0    12.011    6.892978   -7.682321    5.309337
  34 H     1.0000    0     1.008    5.456594   -9.159601    5.447597
  35 H     1.0000    0     1.008    8.745821   -8.553639    5.601507
  36 H     1.0000    0     1.008    6.551257   -6.309625    6.808959
  37 C     6.0000    0    12.011    6.789862   -8.451434    0.637471
  38 H     1.0000    0     1.008    8.510440   -9.592911    0.716962
  39 H     1.0000    0     1.008    5.163406   -9.698940    0.883653
  40 H     1.0000    0     1.008    6.653915   -7.585924   -1.233543
  41 N     7.0000    0    14.007    5.635855    2.001689    4.558968
  42 C     6.0000    0    12.011    6.979809    3.423135    2.642718
  43 H     1.0000    0     1.008    7.758516    2.131384    1.234864
  44 H     1.0000    0     1.008    5.716199    4.762616    1.707390
  45 H     1.0000    0     1.008    8.516956    4.459971    3.545032
  46 C     6.0000    0    12.011   -1.940923    4.038071   -2.853330
  47 C     6.0000    0    12.011   -2.040747    5.754997    1.712821
  48 C     6.0000    0    12.011   -0.162577    6.236253   -3.540759
  49 C     6.0000    0    12.011   -0.280594    7.901914    0.838362
  50 C     6.0000    0    12.011   -0.602911    8.585258   -1.938012
  51 H     1.0000    0     1.008   -0.380016    6.663758   -5.555562
  52 H     1.0000    0     1.008    1.788097    5.592446   -3.253670
  53 H     1.0000    0     1.008   -0.590099    9.553677    2.048845
  54 H     1.0000    0     1.008    1.675571    7.280185    1.140735
  55 H     1.0000    0     1.008    0.740238   10.069056   -2.466153
  56 H     1.0000    0     1.008   -2.493087    9.362463   -2.282466
  57 N     7.0000    0    14.007   -1.794331    3.621004   -0.085109
  58 C     6.0000    0    12.011   -0.973234    1.674534   -4.238735
  59 H     1.0000    0     1.008    0.908289    1.147754   -3.576645
  60 H     1.0000    0     1.008   -2.234267    0.060409   -3.976581
  61 H     1.0000    0     1.008   -0.862087    2.075469   -6.264873
  62 C     6.0000    0    12.011   -4.617650    4.580182   -3.896407
  63 H     1.0000    0     1.008   -4.538436    4.741586   -5.958499
  64 H     1.0000    0     1.008   -5.912619    3.036573   -3.446441
  65 H     1.0000    0     1.008   -5.427564    6.332079   -3.172797
  66 C     6.0000    0    12.011   -4.758208    6.777720    2.048170
  67 H     1.0000    0     1.008   -6.030549    5.280598    2.684125
  68 H     1.0000    0     1.008   -4.774038    8.258160    3.493973
  69 H     1.0000    0     1.008   -5.534050    7.592733    0.321115
  70 C     6.0000    0    12.011   -1.127764    4.920837    4.338004
  71 H     1.0000    0     1.008    0.812216    4.221797    4.271597
  72 H     1.0000    0     1.008   -1.185329    6.539785    5.624023
  73 H     1.0000    0     1.008   -2.315081    3.431378    5.135401

--------------------------------
INTERNAL COORDINATES (ANGSTROEM)
--------------------------------
 C      0   0   0     0.000000000000     0.00000000     0.00000000
 C      1   0   0     1.390630962891     0.00000000     0.00000000
 C      2   1   0     1.401845735031   122.02533355     0.00000000
 C      3   2   1     1.410937758179   118.05486059   359.74420924
 C      4   3   2     1.400306281393   119.50040150     0.66073096
 C      1   2   3     1.389308180899   119.53984115   359.67283877
 H      1   2   3     1.085974341154   120.06557173   179.79478974
 H      2   1   3     1.086871720958   118.79857643   180.46288247
 H      5   4   3     1.084027810456   119.13919927   179.52805238
 H      6   1   2     1.085930990977   120.56503038   180.50840379
 B      3   2   1     1.594044251498   121.76934194   177.05366817
 H     11   3   2     1.499507869626    97.47069313    54.64380626
 C     11   3   2     1.579758491916   117.84298810   296.30178909
 C     13  11   3     1.393572428948   129.83385015    14.23477069
 C     14  13  11     1.405708890677   108.80925972   194.58714738
 H     14  13  11     1.080686284682   124.18175416    13.65553130
 C     15  14  13     1.383308662154   106.48693007     0.21014073
 H     15  14  13     1.080179851315   127.57865484   179.54013990
 H     17  15  14     1.080889969333   130.40324738   179.95498302
 H     11   3   2     1.196596967822   118.97941517   150.67512967
 B     12  11   3     1.234399800541   102.85351288   236.47122307
 O     21  12  11     1.365677172805   118.74265885   256.96773080
 O     21  12  11     1.364654546116   120.07680284   106.25353310
 C     22  21  12     1.449180942067   105.98357821   193.46694738
 C     23  21  12     1.446594400329   106.67865746   148.47214946
 C     24  22  21     1.521846532869   108.11339471   145.42697904
 H     26  24  22     1.092863680735   109.52082846    66.27681808
 H     26  24  22     1.094428455713   110.40053673   185.18494428
 H     26  24  22     1.090848451583   111.76620420   306.41138987
 C     24  22  21     1.527425942360   107.48487191   264.24497799
 H     30  24  22     1.093178632754   108.77989832   304.11968991
 H     30  24  22     1.091702129048   111.88222338    63.40617302
 H     30  24  22     1.093631766550   110.94766084   185.02702387
 C     25  23  21     1.521798175148   108.37503784   139.53526710
 H     34  25  23     1.092808372657   109.50243334    65.30129567
 H     34  25  23     1.094461426980   110.61177044   184.45520016
 H     34  25  23     1.090918124388   111.20624899   305.77511685
 C     25  23  21     1.528400727448   106.42414334   258.38737010
 H     38  25  23     1.093449806458   111.49441373   182.93566549
 H     38  25  23     1.092495860253   108.87491965   302.63002091
 H     38  25  23     1.093270662402   111.11316631    61.47284603
 N     17  15  14     1.355959331382   108.90218474   359.58006358
 C     42  17  15     1.449089559760   124.72460401   180.31123564
 H     43  42  17     1.091831970001   109.73880926   124.01018473
 H     43  42  17     1.092947585990   110.68822193   244.53557400
 H     43  42  17     1.091185921869   108.70224282     4.41291035
 C      4   3   2     2.476892371559   121.58313106   218.76324611
 C      4   3   2     2.487659880312   121.16323912   143.70891629
 C     47   4   3     1.539812771595   136.52245043   294.75485450
 C     48   4   3     1.540267071980   136.50090071    66.92533913
 C     50  48   4     1.522624227676   113.41084919    66.03786533
 H     49  47   4     1.095981194417   108.75919714   168.43194505
 H     49  47   4     1.097584846419   107.91399629    52.33164009
 H     50  48   4     1.095969475083   108.80201895   190.04511075
 H     50  48   4     1.097906760645   107.77873894   305.90126836
 H     51  50  48     1.095363415018   110.10543992   182.05168170
 H     51  50  48     1.096745812490   110.58442031    64.88183310
 N      4   3   2     1.433733435847   119.42150216   180.93731436
 C     47   4   3     1.537537869701    85.21732562    45.04959967
 H     59  47   4     1.091695110207   111.00442393   286.18494856
 H     59  47   4     1.092764122828   111.83461670    47.46312476
 H     59  47   4     1.094557696975   109.10430884   166.84962743
 C     47   4   3     1.547041609404   105.89582191   150.96552891
 H     63  47   4     1.095351900801   109.56430110   215.47800144
 H     63  47   4     1.092484344518   110.97134448   333.93780867
 H     63  47   4     1.090761902784   113.08587838    95.75300350
 C     48   4   3     1.546701997739   105.30646616   209.90541887
 H     67  48   4     1.092807504355   110.76184110    26.60516338
 H     67  48   4     1.095064301194   109.73062843   144.99163718
 H     67  48   4     1.090784853160   113.08893220   264.92172291
 C     48   4   3     1.535612245521    85.96141790   316.24686127
 H     71  48   4     1.091771919673   111.35295535    76.91547239
 H     71  48   4     1.094533581288   109.19096442   196.26132944
 H     71  48   4     1.092728734518   112.07232738   315.83871813

---------------------------
INTERNAL COORDINATES (A.U.)
---------------------------
 C      0   0   0     0.000000000000     0.00000000     0.00000000
 C      1   0   0     2.627911673214     0.00000000     0.00000000
 C      2   1   0     2.649104521214   122.02533355     0.00000000
 C      3   2   1     2.666285954966   118.05486059   359.74420924
 C      4   3   2     2.646195375443   119.50040150     0.66073096
 C      1   2   3     2.625411977516   119.53984115   359.67283877
 H      1   2   3     2.052194093247   120.06557173   179.79478974
 H      2   1   3     2.053889895314   118.79857643   180.46288247
 H      5   4   3     2.048515683316   119.13919927   179.52805238
 H      6   1   2     2.052112173285   120.56503038   180.50840379
 B      3   2   1     3.012307080683   121.76934194   177.05366817
 H     11   3   2     2.833659209253    97.47069313    54.64380626
 C     11   3   2     2.985310907457   117.84298810   296.30178909
 C     13  11   3     2.633470238496   129.83385015    14.23477069
 C     14  13  11     2.656404827398   108.80925972   194.58714738
 H     14  13  11     2.042201114733   124.18175416    13.65553130
 C     15  14  13     2.614074530151   106.48693007     0.21014073
 H     15  14  13     2.041244094365   127.57865484   179.54013990
 H     17  15  14     2.042586022942   130.40324738   179.95498302
 H     11   3   2     2.261240561864   118.97941517   150.67512967
 B     12  11   3     2.332677562790   102.85351288   236.47122307
 O     21  12  11     2.580755843950   118.74265885   256.96773080
 O     21  12  11     2.578823359569   120.07680284   106.25353310
 C     22  21  12     2.738555099004   105.98357821   193.46694738
 C     23  21  12     2.733667243485   106.67865746   148.47214946
 C     24  22  21     2.875873164980   108.11339471   145.42697904
 H     26  24  22     2.065213058298   109.52082846    66.27681808
 H     26  24  22     2.068170054469   110.40053673   185.18494428
 H     26  24  22     2.061404827104   111.76620420   306.41138987
 C     24  22  21     2.886416720906   107.48487191   264.24497799
 H     30  24  22     2.065808231359   108.77989832   304.11968991
 H     30  24  22     2.063018043720   111.88222338    63.40617302
 H     30  24  22     2.066664530137   110.94766084   185.02702387
 C     25  23  21     2.875781782130   108.37503784   139.53526710
 H     34  25  23     2.065108541178   109.50243334    65.30129567
 H     34  25  23     2.068232361134   110.61177044   184.45520016
 H     34  25  23     2.061536489624   111.20624899   305.77511685
 C     25  23  21     2.888258797763   106.42414334   258.38737010
 H     38  25  23     2.066320675394   111.49441373   182.93566549
 H     38  25  23     2.064517978320   108.87491965   302.63002091
 H     38  25  23     2.065982142190   111.11316631    61.47284603
 N     17  15  14     2.562391785047   108.90218474   359.58006358
 C     42  17  15     2.738382411471   124.72460401   180.31123564
 H     43  42  17     2.063263407562   109.73880926   124.01018473
 H     43  42  17     2.065371616251   110.68822193   244.53557400
 H     43  42  17     2.062042553523   108.70224282     4.41291035
 C      4   3   2     4.680648245444   121.58313106   218.76324611
 C      4   3   2     4.700995888133   121.16323912   143.70891629
 C     47   4   3     2.909824435829   136.52245043   294.75485450
 C     48   4   3     2.910682939138   136.50090071    66.92533913
 C     50  48   4     2.877342795180   113.41084919    66.03786533
 H     49  47   4     2.071104305376   108.75919714   168.43194505
 H     49  47   4     2.074134768474   107.91399629    52.33164009
 H     50  48   4     2.071082159045   108.80201895   190.04511075
 H     50  48   4     2.074743098200   107.77873894   305.90126836
 H     51  50  48     2.069936871501   110.10543992   182.05168170
 H     51  50  48     2.072549224131   110.58442031    64.88183310
 N      4   3   2     2.709363542798   119.42150216   180.93731436
 C     47   4   3     2.905525494268    85.21732562    45.04959967
 H     59  47   4     2.063004780032   111.00442393   286.18494856
 H     59  47   4     2.065024921120   111.83461670    47.46312476
 H     59  47   4     2.068414285059   109.10430884   166.84962743
 C     47   4   3     2.923484959554   105.89582191   150.96552891
 H     63  47   4     2.069915112785   109.56430110   215.47800144
 H     63  47   4     2.064496216736   110.97134448   333.93780867
 H     63  47   4     2.061241273576   113.08587838    95.75300350
 C     48   4   3     2.922843186515   105.30646616   209.90541887
 H     67  48   4     2.065106900324   110.76184110    26.60516338
 H     67  48   4     2.069371628291   109.73062843   144.99163718
 H     67  48   4     2.061284643503   113.08893220   264.92172291
 C     48   4   3     2.901886591930    85.96141790   316.24686127
 H     71  48   4     2.063149928887   111.35295535    76.91547239
 H     71  48   4     2.068368713015   109.19096442   196.26132944
 H     71  48   4     2.064958046905   112.07232738   315.83871813

---------------------
BASIS SET INFORMATION
---------------------
There are 5 groups of distinct atoms

 Group   1 Type C   : 10s4p1d contracted to 3s2p1d pattern {631/31/1}
 Group   2 Type H   : 4s1p contracted to 2s1p pattern {31/1}
 Group   3 Type B   : 10s4p1d contracted to 3s2p1d pattern {631/31/1}
 Group   4 Type O   : 10s4p1d contracted to 3s2p1d pattern {631/31/1}
 Group   5 Type N   : 10s4p1d contracted to 3s2p1d pattern {631/31/1}

Atom   0C    basis set group =>   1
Atom   1C    basis set group =>   1
Atom   2C    basis set group =>   1
Atom   3C    basis set group =>   1
Atom   4C    basis set group =>   1
Atom   5C    basis set group =>   1
Atom   6H    basis set group =>   2
Atom   7H    basis set group =>   2
Atom   8H    basis set group =>   2
Atom   9H    basis set group =>   2
Atom  10B    basis set group =>   3
Atom  11H    basis set group =>   2
Atom  12C    basis set group =>   1
Atom  13C    basis set group =>   1
Atom  14C    basis set group =>   1
Atom  15H    basis set group =>   2
Atom  16C    basis set group =>   1
Atom  17H    basis set group =>   2
Atom  18H    basis set group =>   2
Atom  19H    basis set group =>   2
Atom  20B    basis set group =>   3
Atom  21O    basis set group =>   4
Atom  22O    basis set group =>   4
Atom  23C    basis set group =>   1
Atom  24C    basis set group =>   1
Atom  25C    basis set group =>   1
Atom  26H    basis set group =>   2
Atom  27H    basis set group =>   2
Atom  28H    basis set group =>   2
Atom  29C    basis set group =>   1
Atom  30H    basis set group =>   2
Atom  31H    basis set group =>   2
Atom  32H    basis set group =>   2
Atom  33C    basis set group =>   1
Atom  34H    basis set group =>   2
Atom  35H    basis set group =>   2
Atom  36H    basis set group =>   2
Atom  37C    basis set group =>   1
Atom  38H    basis set group =>   2
Atom  39H    basis set group =>   2
Atom  40H    basis set group =>   2
Atom  41N    basis set group =>   5
Atom  42C    basis set group =>   1
Atom  43H    basis set group =>   2
Atom  44H    basis set group =>   2
Atom  45H    basis set group =>   2
Atom  46C    basis set group =>   1
Atom  47C    basis set group =>   1
Atom  48C    basis set group =>   1
Atom  49C    basis set group =>   1
Atom  50C    basis set group =>   1
Atom  51H    basis set group =>   2
Atom  52H    basis set group =>   2
Atom  53H    basis set group =>   2
Atom  54H    basis set group =>   2
Atom  55H    basis set group =>   2
Atom  56H    basis set group =>   2
Atom  57N    basis set group =>   5
Atom  58C    basis set group =>   1
Atom  59H    basis set group =>   2
Atom  60H    basis set group =>   2
Atom  61H    basis set group =>   2
Atom  62C    basis set group =>   1
Atom  63H    basis set group =>   2
Atom  64H    basis set group =>   2
Atom  65H    basis set group =>   2
Atom  66C    basis set group =>   1
Atom  67H    basis set group =>   2
Atom  68H    basis set group =>   2
Atom  69H    basis set group =>   2
Atom  70C    basis set group =>   1
Atom  71H    basis set group =>   2
Atom  72H    basis set group =>   2
Atom  73H    basis set group =>   2
---------------------------------
AUXILIARY/J BASIS SET INFORMATION
---------------------------------
There are 5 groups of distinct atoms

 Group   1 Type C   : 12s5p4d2f1g contracted to 6s4p3d1f1g pattern {711111/2111/211/2/1}
 Group   2 Type H   : 5s2p1d contracted to 3s1p1d pattern {311/2/1}
 Group   3 Type B   : 12s5p4d2f1g contracted to 6s4p3d1f1g pattern {711111/2111/211/2/1}
 Group   4 Type O   : 12s5p4d2f1g contracted to 6s4p3d1f1g pattern {711111/2111/211/2/1}
 Group   5 Type N   : 12s5p4d2f1g contracted to 6s4p3d1f1g pattern {711111/2111/211/2/1}

Atom   0C    basis set group =>   1
Atom   1C    basis set group =>   1
Atom   2C    basis set group =>   1
Atom   3C    basis set group =>   1
Atom   4C    basis set group =>   1
Atom   5C    basis set group =>   1
Atom   6H    basis set group =>   2
Atom   7H    basis set group =>   2
Atom   8H    basis set group =>   2
Atom   9H    basis set group =>   2
Atom  10B    basis set group =>   3
Atom  11H    basis set group =>   2
Atom  12C    basis set group =>   1
Atom  13C    basis set group =>   1
Atom  14C    basis set group =>   1
Atom  15H    basis set group =>   2
Atom  16C    basis set group =>   1
Atom  17H    basis set group =>   2
Atom  18H    basis set group =>   2
Atom  19H    basis set group =>   2
Atom  20B    basis set group =>   3
Atom  21O    basis set group =>   4
Atom  22O    basis set group =>   4
Atom  23C    basis set group =>   1
Atom  24C    basis set group =>   1
Atom  25C    basis set group =>   1
Atom  26H    basis set group =>   2
Atom  27H    basis set group =>   2
Atom  28H    basis set group =>   2
Atom  29C    basis set group =>   1
Atom  30H    basis set group =>   2
Atom  31H    basis set group =>   2
Atom  32H    basis set group =>   2
Atom  33C    basis set group =>   1
Atom  34H    basis set group =>   2
Atom  35H    basis set group =>   2
Atom  36H    basis set group =>   2
Atom  37C    basis set group =>   1
Atom  38H    basis set group =>   2
Atom  39H    basis set group =>   2
Atom  40H    basis set group =>   2
Atom  41N    basis set group =>   5
Atom  42C    basis set group =>   1
Atom  43H    basis set group =>   2
Atom  44H    basis set group =>   2
Atom  45H    basis set group =>   2
Atom  46C    basis set group =>   1
Atom  47C    basis set group =>   1
Atom  48C    basis set group =>   1
Atom  49C    basis set group =>   1
Atom  50C    basis set group =>   1
Atom  51H    basis set group =>   2
Atom  52H    basis set group =>   2
Atom  53H    basis set group =>   2
Atom  54H    basis set group =>   2
Atom  55H    basis set group =>   2
Atom  56H    basis set group =>   2
Atom  57N    basis set group =>   5
Atom  58C    basis set group =>   1
Atom  59H    basis set group =>   2
Atom  60H    basis set group =>   2
Atom  61H    basis set group =>   2
Atom  62C    basis set group =>   1
Atom  63H    basis set group =>   2
Atom  64H    basis set group =>   2
Atom  65H    basis set group =>   2
Atom  66C    basis set group =>   1
Atom  67H    basis set group =>   2
Atom  68H    basis set group =>   2
Atom  69H    basis set group =>   2
Atom  70C    basis set group =>   1
Atom  71H    basis set group =>   2
Atom  72H    basis set group =>   2
Atom  73H    basis set group =>   2


           ************************************************************
           *        Program running with 24 parallel MPI-processes    *
           *              working on a common directory               *
           ************************************************************
------------------------------------------------------------------------------
                             ORCA STARTUP CALCULATIONS
                           -- RI-GTO INTEGRALS CHOSEN --
------------------------------------------------------------------------------
------------------------------------------------------------------------------
                   ___                                                        
                  /   \      - P O W E R E D   B Y -                         
                 /     \                                                     
                 |  |  |   _    _      __       _____    __    __             
                 |  |  |  | |  | |    /  \     |  _  \  |  |  /  |          
                  \  \/   | |  | |   /    \    | | | |  |  | /  /          
                 / \  \   | |__| |  /  /\  \   | |_| |  |  |/  /          
                |  |  |   |  __  | /  /__\  \  |    /   |      \           
                |  |  |   | |  | | |   __   |  |    \   |  |\   \          
                \     /   | |  | | |  |  |  |  | |\  \  |  | \   \       
                 \___/    |_|  |_| |__|  |__|  |_| \__\ |__|  \__/        
                                                                              
                      - O R C A' S   B I G   F R I E N D -                    
                                      &                                       
                       - I N T E G R A L  F E E D E R -                       
                                                                              
 v1 FN, 2020, v2 2021, v3 2022-2024                                           
------------------------------------------------------------------------------


----------------------
SHARK INTEGRAL PACKAGE
----------------------

Number of atoms                             ...     74
Number of basis functions                   ...    658
Number of shells                            ...    318
Maximum angular momentum                    ...      2
Integral batch strategy                     ... SHARK/LIBINT Hybrid
RI-J (if used) integral strategy            ... SPLIT-RIJ (Revised 2003 algorithm where possible)
Printlevel                                  ...      1
Contraction scheme used                     ... SEGMENTED contraction
Prescreening option                         ... SCHWARTZ
   Thresh                                   ... 2.500e-11
   Tcut                                     ... 2.500e-12
   Tpresel                                  ... 2.500e-12 
Coulomb Range Separation                    ... NOT USED
Exchange Range Separation                   ... Long Range
   Mu parameter                             ... 2.500e-01
   Scaling (regular/separated)              ... 1.957e-01 8.043e-01
Multipole approximations                    ... NOT USED
Finite Nucleus Model                        ... NOT USED
CABS basis                                  ... NOT available
Auxiliary Coulomb fitting basis             ... AVAILABLE
   # of basis functions in Aux-J            ...   2030
   # of shells in Aux-J                     ...    690
   Maximum angular momentum in Aux-J        ...      4
Auxiliary J/K fitting basis                 ... NOT available
Auxiliary Correlation fitting basis         ... NOT available
Auxiliary 'external' fitting basis          ... NOT available

Checking pre-screening integrals            ... done (  0.0 sec) Dimension = 318
Check shell pair data                       ... done (  0.0 sec)
Shell pair information
Shell pair cut-off parameter TPreSel        ...   2.5e-12
Total number of shell pairs                 ...     50721
Shell pairs after pre-screening             ...     31523
Total number of primitive shell pairs       ...    239193
Primitive shell pairs kept                  ...     82651
          la=0 lb=0:  10341 shell pairs
          la=1 lb=0:  11977 shell pairs
          la=1 lb=1:   3557 shell pairs
          la=2 lb=0:   3392 shell pairs
          la=2 lb=1:   1971 shell pairs
          la=2 lb=2:    285 shell pairs

Calculating one electron integrals          ... done (  0.1 sec)
Calculating RI/J V-Matrix + Cholesky decomp.... done (  0.3 sec)
Calculating Nuclear repulsion               ... done (  0.0 sec) ENN=   3589.067204528095 Eh

Diagonalization of the overlap matrix:
Smallest eigenvalue                        ... 3.993e-04
Time for diagonalization                   ...    0.114 sec
Threshold for overlap eigenvalues          ... 1.000e-07
Number of eigenvalues below threshold      ... 0
Time for construction of square roots      ...    0.062 sec
Total time needed                          ...    0.407 sec

-------------------
DFT GRID GENERATION
-------------------

General Integration Accuracy     IntAcc      ... 4.388
Radial Grid Type                 RadialGrid  ... OptM3 with GC (2021)
Angular Grid (max. ang.)         AngularGrid ... 4 (Lebedev-302)
Angular grid pruning method      GridPruning ... 4 (adaptive)
Weight generation scheme         WeightScheme... mBecke (2022)
Basis function cutoff            BFCut       ... 1.0000e-11
Integration weight cutoff        WCut        ... 1.0000e-14
Partially contracted basis set               ... off
Rotationally invariant grid construction     ... off
Angular grids for H and He will be reduced by one unit

Total number of grid points                  ...   319553
Total number of batches                      ...     5026
Average number of points per batch           ...       63
Average number of grid points per atom       ...     4318

--------------------
COSX GRID GENERATION
--------------------

GRIDX 1
-------
General Integration Accuracy     IntAcc      ... 3.816
Radial Grid Type                 RadialGrid  ... OptM3 with GC (2021)
Angular Grid (max. ang.)         AngularGrid ... 1 (Lebedev-50)
Angular grid pruning method      GridPruning ... 4 (adaptive)
Weight generation scheme         WeightScheme... mBecke (2022)
Basis function cutoff            BFCut       ... 1.0000e-11
Integration weight cutoff        WCut        ... 1.0000e-14
Partially contracted basis set               ... on
Rotationally invariant grid construction     ... off
Angular grids for H and He will be reduced by one unit

Total number of grid points                  ...    40530
Total number of batches                      ...      353
Average number of points per batch           ...      114
Average number of grid points per atom       ...      548
UseSFitting                                  ... on

GRIDX 2
-------
General Integration Accuracy     IntAcc      ... 4.020
Radial Grid Type                 RadialGrid  ... OptM3 with GC (2021)
Angular Grid (max. ang.)         AngularGrid ... 2 (Lebedev-110)
Angular grid pruning method      GridPruning ... 4 (adaptive)
Weight generation scheme         WeightScheme... mBecke (2022)
Basis function cutoff            BFCut       ... 1.0000e-11
Integration weight cutoff        WCut        ... 1.0000e-14
Partially contracted basis set               ... on
Rotationally invariant grid construction     ... off
Angular grids for H and He will be reduced by one unit

Total number of grid points                  ...    84114
Total number of batches                      ...      699
Average number of points per batch           ...      120
Average number of grid points per atom       ...     1137
UseSFitting                                  ... on

GRIDX 3
-------
General Integration Accuracy     IntAcc      ... 4.338
Radial Grid Type                 RadialGrid  ... OptM3 with GC (2021)
Angular Grid (max. ang.)         AngularGrid ... 3 (Lebedev-194)
Angular grid pruning method      GridPruning ... 4 (adaptive)
Weight generation scheme         WeightScheme... mBecke (2022)
Basis function cutoff            BFCut       ... 1.0000e-11
Integration weight cutoff        WCut        ... 1.0000e-14
Partially contracted basis set               ... on
Rotationally invariant grid construction     ... off
Angular grids for H and He will be reduced by one unit

Total number of grid points                  ...   182062
Total number of batches                      ...     1458
Average number of points per batch           ...      124
Average number of grid points per atom       ...     2460
UseSFitting                                  ... on
Initializing property integral containers    ... done (  0.0 sec)

SHARK setup successfully completed in   7.5 seconds

Maximum memory used throughout the entire STARTUP-calculation: 99.5 MB


           ************************************************************
           *        Program running with 24 parallel MPI-processes    *
           *              working on a common directory               *
           ************************************************************
-------------------------------------------------------------------------------
                                 ORCA GUESS
                   Start orbitals & Density for SCF / CASSCF
-------------------------------------------------------------------------------

------------
SCF SETTINGS
------------
Hamiltonian:
 Density Functional     Method          .... DFT(GTOs)
 Exchange Functional    Exchange        .... WB97X-D3
 Correlation Functional Correlation     .... WB97X-D3
 Gradients option       PostSCFGGA      .... off
 Hybrid DFT is turned on
   Fraction HF Exchange ScalHFX         ....  0.195728
   Scaling of DF-GGA-X  ScalDFX         ....  0.000000
   Scaling of DF-GGA-C  ScalDFC         ....  1.000000
   Scaling of DF-LDA-C  ScalLDAC        ....  1.000000
   Perturbative correction              ....  0.000000
 Long-range corrected/Screened/Range-Separated Hybrid DFT is turned on
   Amount of maximum screened exact exchange              ....  0.804272
   Range separation parameter mu (erf(mu*r12)/r12)        ....  0.250000
 RI-approximation to the Coulomb term is turned on
   Number of AuxJ basis functions       .... 2030
   RIJ-COSX (HFX calculated with COS-X)).... on


General Settings:
 Integral files         IntName         .... input
 Hartree-Fock type      HFTyp           .... RHF
 Total Charge           Charge          ....    0
 Multiplicity           Mult            ....    1
 Number of Electrons    NEL             ....  238
 Basis Dimension        Dim             ....  658
 Nuclear Repulsion      ENuc            ....   3589.0672045281 Eh

Convergence Acceleration:
 AO-DIIS                CNVDIIS         .... on
   Start iteration      DIISMaxIt       ....    12
   Startup error        DIISStart       ....  0.200000
   # of expansion vecs  DIISMaxEq       ....     5
   Bias factor          DIISBfac        ....   1.050
   Max. coefficient     DIISMaxC        ....  10.000
 MO-DIIS                CNVKDIIS        .... off
 Trust-Rad. Augm. Hess. CNVTRAH         .... auto
   Auto Start mean grad. ratio tolernc. ....  1.125000
   Auto Start start iteration           ....    50
   Auto Start num. interpolation iter.  ....    10
   Max. Number of Micro iterations      ....    24
   Max. Number of Macro iterations      .... Maxiter - #DIIS iter
   Number of Davidson start vectors     ....     2
   Converg. threshold    (grad. norm)   ....   1.000e-05
   Grad. Scal. Fac. for Micro threshold ....   0.100
   Minimum threshold for Micro iter.    ....   1.000e-02
   NR start threshold (gradient norm)   ....   1.000e-04
   Initial trust radius                 ....   0.400
   Minimum AH scaling param. (alpha)    ....   1.000
   Maximum AH scaling param. (alpha)    .... 1000.000
   Quad. conv. algorithm                .... NR
   White noise on init. David. guess    .... on
   Maximum white noise                  ....   0.010
   Pseudo random numbers                .... off
   Inactive MOs                         .... canonical
   Orbital update algorithm             .... Taylor
   Preconditioner                       .... Diag
   Full preconditioner red. dimension   ....   250
 SOSCF                  CNVSOSCF        .... on
   Start iteration      SOSCFMaxIt      ....   150
   Startup grad/error   SOSCFStart      ....  0.003300
   Hessian update       SOSCFHessUp     .... L-BFGS
 Level Shifting         CNVShift        .... on
   Level shift para.    LevelShift      ....    0.2500
   Turn off err/grad.   ShiftErr        ....    0.0010
 Zerner damping         CNVZerner       .... off
 Static damping         CNVDamp         .... on
   Fraction old density DampFac         ....    0.7000
   Max. Damping (<1)    DampMax         ....    0.9800
   Min. Damping (>=0)   DampMin         ....    0.0000
   Turn off err/grad.   DampErr         ....    0.1000

SCF Procedure:
 Maximum # iterations   MaxIter         ....   125
 SCF integral mode      SCFMode         .... Direct
   Integral package                     .... SHARK and LIBINT hybrid scheme
 Reset frequency        DirectResetFreq ....    20
 Integral Threshold     Thresh          ....  2.500e-11 Eh
 Primitive CutOff       TCut            ....  2.500e-12 Eh

Convergence Tolerance:
 Convergence Check Mode ConvCheckMode   .... Total+1el-Energy
 Convergence forced     ConvForced      .... 0
 Energy Change          TolE            ....  1.000e-08 Eh
 1-El. energy change                    ....  1.000e-05 Eh
 Orbital Gradient       TolG            ....  1.000e-05
 Orbital Rotation angle TolX            ....  1.000e-05
 DIIS Error             TolErr          ....  5.000e-07

------------------------------
INITIAL GUESS: MODEL POTENTIAL
------------------------------
Loading Hartree-Fock densities                     ... done
Calculating cut-offs                               ... done
Initializing the effective Hamiltonian             ... done
Setting up the integral package (SHARK)            ... done
Starting the Coulomb interaction                   ... done (   0.5 sec)
Making the grid                                    ... done (   0.8 sec)
Mapping shells                                     ... done
Starting the XC term evaluation                    ... done (   0.2 sec)
  promolecular density results
     # of electrons  =    237.973102147
     EX              =   -182.564998754
     EC              =     -7.975200710
     EX+EC           =   -190.540199464
Transforming the Hamiltonian                       ... done (   0.1 sec)
Diagonalizing the Hamiltonian                      ... done (   0.1 sec)
Back transforming the eigenvectors                 ... done (   0.1 sec)
Now organizing SCF variables                       ... done
                      ------------------
                      INITIAL GUESS DONE (   1.8 sec)
                      ------------------
             **** ENERGY FILE WAS UPDATED (input.en.tmp) ****
Finished Guess after   2.3 sec
Maximum memory used throughout the entire GUESS-calculation: 63.6 MB


           ************************************************************
           *        Program running with 24 parallel MPI-processes    *
           *              working on a common directory               *
           ************************************************************

-------------------------------------------------------------------------------------------
                                      ORCA LEAN-SCF
                              memory conserving SCF solver
-------------------------------------------------------------------------------------------

----------------------------------------D-I-I-S--------------------------------------------
Iteration    Energy (Eh)           Delta-E    RMSDP     MaxDP     DIISErr   Damp  Time(sec)
-------------------------------------------------------------------------------------------
               ***  Starting incremental Fock matrix formation  ***
    1    -1324.6625891453181794     0.00e+00  1.17e-03  4.92e-02  1.82e-01  0.700  14.5
    2    -1324.9903422514239537    -3.28e-01  8.97e-04  3.47e-02  9.72e-02  0.700   7.0
                               ***Turning on AO-DIIS***
    3    -1325.1630241153784482    -1.73e-01  4.61e-04  1.75e-02  5.11e-02  0.700   7.3
    4    -1325.2658317164800792    -1.03e-01  9.88e-04  3.92e-02  3.20e-02  0.000   6.3
    5    -1325.4839659675640178    -2.18e-01  8.41e-05  3.09e-03  3.91e-03  0.000   6.6
                              *** Initializing SOSCF ***
---------------------------------------S-O-S-C-F--------------------------------------
Iteration    Energy (Eh)           Delta-E    RMSDP     MaxDP     MaxGrad    Time(sec)
--------------------------------------------------------------------------------------
    6    -1325.4844083316643264    -4.42e-04  4.27e-05  2.00e-03  2.85e-03     5.9
               *** Restarting incremental Fock matrix formation ***
    7    -1325.4846313295797700    -2.23e-04  2.69e-05  1.04e-03  8.50e-04    14.2
    8    -1325.4846565670090968    -2.52e-05  2.55e-05  8.26e-04  2.84e-04     9.2
    9    -1325.4846642010656979    -7.63e-06  8.34e-06  2.95e-04  1.20e-04     9.1
   10    -1325.4846656378308580    -1.44e-06  2.24e-06  8.39e-05  4.03e-05     8.1
   11    -1325.4846657185730692    -8.07e-08  8.79e-07  5.09e-05  2.18e-05     6.7
   12    -1325.4846657397251874    -2.12e-08  3.49e-07  1.28e-05  5.23e-06     5.6
   13    -1325.4846657284883804     1.12e-08  1.24e-07  5.48e-06  1.78e-06     4.8
                  *** Gradient check signals convergence ***

               *****************************************************
               *                     SUCCESS                       *
               *           SCF CONVERGED AFTER  13 CYCLES          *
               *****************************************************

Recomputing exchange energy using gridx3       ... done (   24.186 sec)
Old exchange energy                            :    -62.157039177 Eh
New exchange energy                            :    -62.157058060 Eh
Exchange energy change after final integration :     -0.000018883 Eh
Total energy after final integration           :  -1325.484684612 Eh
             **** ENERGY FILE WAS UPDATED (input.en.tmp) ****

----------------
TOTAL SCF ENERGY
----------------

Total Energy       :      -1325.48468461168500 Eh          -36068.27194 eV

Components:
Nuclear Repulsion  :       3589.06720452809486 Eh           97663.48375 eV
Electronic Energy  :      -4914.55187025658233 Eh         -133731.75518 eV
One Electron Energy:      -8940.01334099684755 Eh         -243270.13062 eV
Two Electron Energy:       4025.46147074026476 Eh          109538.37544 eV

Virial components:
Potential Energy   :      -2641.76458947755282 Eh          -71886.06910 eV
Kinetic Energy     :       1316.27990486586782 Eh           35817.79715 eV
Virial Ratio       :          2.00699302611230

DFT components:
N(Alpha)           :      119.000121306729 electrons
N(Beta)            :      119.000121306729 electrons
N(Total)           :      238.000242613458 electrons
E(XC)              :     -133.941038365568 Eh       

---------------
SCF CONVERGENCE
---------------

  Last Energy change         ...   -1.1237e-08  Tolerance :   1.0000e-08
  Last MAX-Density change    ...    5.4841e-06  Tolerance :   1.0000e-07
  Last RMS-Density change    ...    1.2437e-07  Tolerance :   5.0000e-09
  Last DIIS Error            ...    2.8473e-03  Tolerance :   5.0000e-07
  Last Orbital Gradient      ...    1.7792e-06  Tolerance :   1.0000e-05
  Last Orbital Rotation      ...    4.1052e-06  Tolerance :   1.0000e-05


----------------
ORBITAL ENERGIES
----------------

  NO   OCC          E(Eh)            E(eV) 
   0   2.0000     -19.259854      -524.0873 
   1   2.0000     -19.256705      -524.0016 
   2   2.0000     -14.481696      -394.0670 
   3   2.0000     -14.400051      -391.8453 
   4   2.0000     -10.357014      -281.8287 
   5   2.0000     -10.356638      -281.8185 
   6   2.0000     -10.316110      -280.7156 
   7   2.0000     -10.309177      -280.5270 
   8   2.0000     -10.308408      -280.5060 
   9   2.0000     -10.305338      -280.4225 
  10   2.0000     -10.297752      -280.2161 
  11   2.0000     -10.284050      -279.8432 
  12   2.0000     -10.281378      -279.7705 
  13   2.0000     -10.281185      -279.7653 
  14   2.0000     -10.279824      -279.7282 
  15   2.0000     -10.275068      -279.5988 
  16   2.0000     -10.272751      -279.5358 
  17   2.0000     -10.270391      -279.4715 
  18   2.0000     -10.267519      -279.3934 
  19   2.0000     -10.267075      -279.3813 
  20   2.0000     -10.266566      -279.3675 
  21   2.0000     -10.265062      -279.3265 
  22   2.0000     -10.263932      -279.2958 
  23   2.0000     -10.263785      -279.2918 
  24   2.0000     -10.262926      -279.2684 
  25   2.0000     -10.255037      -279.0538 
  26   2.0000     -10.254574      -279.0411 
  27   2.0000     -10.253722      -279.0180 
  28   2.0000     -10.252373      -278.9813 
  29   2.0000     -10.248987      -278.8891 
  30   2.0000      -6.906310      -187.9303 
  31   2.0000      -6.823789      -185.6847 
  32   2.0000      -1.187658       -32.3178 
  33   2.0000      -1.117979       -30.4218 
  34   2.0000      -1.096691       -29.8425 
  35   2.0000      -1.029436       -28.0124 
  36   2.0000      -0.948078       -25.7985 
  37   2.0000      -0.930743       -25.3268 
  38   2.0000      -0.911758       -24.8102 
  39   2.0000      -0.908788       -24.7294 
  40   2.0000      -0.900078       -24.4924 
  41   2.0000      -0.872664       -23.7464 
  42   2.0000      -0.846730       -23.0407 
  43   2.0000      -0.841055       -22.8863 
  44   2.0000      -0.828068       -22.5329 
  45   2.0000      -0.826689       -22.4954 
  46   2.0000      -0.811403       -22.0794 
  47   2.0000      -0.796341       -21.6695 
  48   2.0000      -0.795292       -21.6410 
  49   2.0000      -0.786229       -21.3944 
  50   2.0000      -0.776500       -21.1296 
  51   2.0000      -0.770823       -20.9752 
  52   2.0000      -0.742981       -20.2175 
  53   2.0000      -0.713828       -19.4242 
  54   2.0000      -0.703325       -19.1384 
  55   2.0000      -0.685253       -18.6467 
  56   2.0000      -0.676371       -18.4050 
  57   2.0000      -0.667210       -18.1557 
  58   2.0000      -0.665947       -18.1213 
  59   2.0000      -0.665503       -18.1093 
  60   2.0000      -0.646601       -17.5949 
  61   2.0000      -0.630535       -17.1577 
  62   2.0000      -0.616913       -16.7870 
  63   2.0000      -0.600490       -16.3402 
  64   2.0000      -0.583444       -15.8763 
  65   2.0000      -0.578807       -15.7501 
  66   2.0000      -0.574709       -15.6386 
  67   2.0000      -0.568231       -15.4623 
  68   2.0000      -0.559455       -15.2236 
  69   2.0000      -0.555545       -15.1172 
  70   2.0000      -0.549514       -14.9530 
  71   2.0000      -0.547804       -14.9065 
  72   2.0000      -0.545223       -14.8363 
  73   2.0000      -0.539547       -14.6818 
  74   2.0000      -0.526848       -14.3363 
  75   2.0000      -0.520746       -14.1702 
  76   2.0000      -0.519265       -14.1299 
  77   2.0000      -0.507573       -13.8118 
  78   2.0000      -0.505914       -13.7666 
  79   2.0000      -0.503279       -13.6949 
  80   2.0000      -0.502415       -13.6714 
  81   2.0000      -0.500634       -13.6230 
  82   2.0000      -0.499463       -13.5911 
  83   2.0000      -0.497235       -13.5305 
  84   2.0000      -0.493358       -13.4250 
  85   2.0000      -0.486566       -13.2401 
  86   2.0000      -0.483481       -13.1562 
  87   2.0000      -0.478844       -13.0300 
  88   2.0000      -0.475151       -12.9295 
  89   2.0000      -0.471890       -12.8408 
  90   2.0000      -0.467440       -12.7197 
  91   2.0000      -0.465853       -12.6765 
  92   2.0000      -0.464850       -12.6492 
  93   2.0000      -0.462898       -12.5961 
  94   2.0000      -0.460176       -12.5220 
  95   2.0000      -0.456283       -12.4161 
  96   2.0000      -0.455600       -12.3975 
  97   2.0000      -0.447775       -12.1846 
  98   2.0000      -0.442419       -12.0388 
  99   2.0000      -0.440772       -11.9940 
 100   2.0000      -0.438112       -11.9216 
 101   2.0000      -0.433596       -11.7988 
 102   2.0000      -0.429435       -11.6855 
 103   2.0000      -0.426746       -11.6124 
 104   2.0000      -0.419887       -11.4257 
 105   2.0000      -0.418423       -11.3859 
 106   2.0000      -0.405692       -11.0394 
 107   2.0000      -0.402784       -10.9603 
 108   2.0000      -0.398189       -10.8353 
 109   2.0000      -0.391265       -10.6469 
 110   2.0000      -0.384876       -10.4730 
 111   2.0000      -0.383714       -10.4414 
 112   2.0000      -0.368777       -10.0349 
 113   2.0000      -0.367788       -10.0080 
 114   2.0000      -0.318609        -8.6698 
 115   2.0000      -0.312781        -8.5112 
 116   2.0000      -0.306904        -8.3513 
 117   2.0000      -0.285453        -7.7676 
 118   2.0000      -0.270787        -7.3685 
 119   0.0000       0.053119         1.4454 
 120   0.0000       0.091585         2.4922 
 121   0.0000       0.094397         2.5687 
 122   0.0000       0.144934         3.9439 
 123   0.0000       0.155161         4.2222 
 124   0.0000       0.159970         4.3530 
 125   0.0000       0.171404         4.6642 
 126   0.0000       0.178267         4.8509 
 127   0.0000       0.183289         4.9875 
 128   0.0000       0.194229         5.2852 
 129   0.0000       0.196326         5.3423 
*Only the first 10 virtual orbitals were printed.

                    ********************************
                    * MULLIKEN POPULATION ANALYSIS *
                    ********************************

-----------------------
MULLIKEN ATOMIC CHARGES
-----------------------
   0 C :   -0.111412
   1 C :   -0.179403
   2 C :    0.049808
   3 C :    0.135665
   4 C :   -0.103995
   5 C :   -0.142477
   6 H :    0.110630
   7 H :    0.124823
   8 H :    0.105843
   9 H :    0.113150
  10 B :    0.034253
  11 H :   -0.011175
  12 C :    0.057402
  13 C :   -0.141113
  14 C :   -0.196792
  15 H :    0.123140
  16 C :    0.042072
  17 H :    0.116039
  18 H :    0.130340
  19 H :   -0.052770
  20 B :    0.559152
  21 O :   -0.479287
  22 O :   -0.477343
  23 C :    0.201286
  24 C :    0.213810
  25 C :   -0.351932
  26 H :    0.131495
  27 H :    0.118125
  28 H :    0.131831
  29 C :   -0.343257
  30 H :    0.119358
  31 H :    0.143998
  32 H :    0.113989
  33 C :   -0.352104
  34 H :    0.132285
  35 H :    0.115542
  36 H :    0.141280
  37 C :   -0.351005
  38 H :    0.117366
  39 H :    0.136680
  40 H :    0.130272
  41 N :   -0.399685
  42 C :   -0.210466
  43 H :    0.160994
  44 H :    0.151562
  45 H :    0.125718
  46 C :    0.152368
  47 C :    0.149306
  48 C :   -0.186404
  49 C :   -0.186060
  50 C :   -0.229843
  51 H :    0.098251
  52 H :    0.106079
  53 H :    0.099488
  54 H :    0.099591
  55 H :    0.109588
  56 H :    0.101267
  57 N :   -0.507434
  58 C :   -0.336426
  59 H :    0.120511
  60 H :    0.123977
  61 H :    0.103366
  62 C :   -0.327689
  63 H :    0.104180
  64 H :    0.111861
  65 H :    0.101161
  66 C :   -0.327683
  67 H :    0.112676
  68 H :    0.104103
  69 H :    0.100195
  70 C :   -0.329816
  71 H :    0.122401
  72 H :    0.102054
  73 H :    0.125239
Sum of atomic charges:   -0.0000000

--------------------------------
MULLIKEN REDUCED ORBITAL CHARGES
--------------------------------
  0 C s       :     3.157832  s :     3.157832
      pz      :     0.994602  p :     2.918344
      px      :     0.943822
      py      :     0.979921
      dz2     :     0.002863  d :     0.035236
      dxz     :     0.006742
      dyz     :     0.003606
      dx2y2   :     0.011394
      dxy     :     0.010631

  1 C s       :     3.184800  s :     3.184800
      pz      :     0.983365  p :     2.958865
      px      :     0.980291
      py      :     0.995210
      dz2     :     0.003111  d :     0.035738
      dxz     :     0.005581
      dyz     :     0.004432
      dx2y2   :     0.009581
      dxy     :     0.013033

  2 C s       :     3.197902  s :     3.197902
      pz      :     0.920223  p :     2.720523
      px      :     0.919407
      py      :     0.880893
      dz2     :     0.003450  d :     0.031767
      dxz     :     0.004830
      dyz     :     0.005522
      dx2y2   :     0.008169
      dxy     :     0.009795

  3 C s       :     3.121158  s :     3.121158
      pz      :     0.948624  p :     2.684357
      px      :     0.922676
      py      :     0.813057
      dz2     :     0.004593  d :     0.058819
      dxz     :     0.008198
      dyz     :     0.007647
      dx2y2   :     0.018330
      dxy     :     0.020050

  4 C s       :     3.162109  s :     3.162109
      pz      :     0.993707  p :     2.907709
      px      :     0.957819
      py      :     0.956183
      dz2     :     0.003225  d :     0.034177
      dxz     :     0.005406
      dyz     :     0.004555
      dx2y2   :     0.009223
      dxy     :     0.011768

  5 C s       :     3.168603  s :     3.168603
      pz      :     0.989166  p :     2.938505
      px      :     1.001243
      py      :     0.948097
      dz2     :     0.004076  d :     0.035369
      dxz     :     0.003434
      dyz     :     0.005984
      dx2y2   :     0.012025
      dxy     :     0.009851

  6 H s       :     0.877157  s :     0.877157
      pz      :     0.003141  p :     0.012213
      px      :     0.002244
      py      :     0.006828

  7 H s       :     0.862218  s :     0.862218
      pz      :     0.002939  p :     0.012959
      px      :     0.005251
      py      :     0.004769

  8 H s       :     0.881441  s :     0.881441
      pz      :     0.003175  p :     0.012716
      px      :     0.004570
      py      :     0.004970

  9 H s       :     0.874617  s :     0.874617
      pz      :     0.002587  p :     0.012232
      px      :     0.007400
      py      :     0.002245

 10 B s       :     2.920744  s :     2.920744
      pz      :     0.685378  p :     1.988651
      px      :     0.742880
      py      :     0.560393
      dz2     :     0.009258  d :     0.056352
      dxz     :     0.014193
      dyz     :     0.011686
      dx2y2   :     0.008823
      dxy     :     0.012393

 11 H s       :     1.001183  s :     1.001183
      pz      :     0.004534  p :     0.009992
      px      :     0.003154
      py      :     0.002303

 12 C s       :     3.164629  s :     3.164629
      pz      :     0.963146  p :     2.730143
      px      :     0.854359
      py      :     0.912637
      dz2     :     0.012151  d :     0.047826
      dxz     :     0.008035
      dyz     :     0.007688
      dx2y2   :     0.010290
      dxy     :     0.009661

 13 C s       :     3.167801  s :     3.167801
      pz      :     0.928682  p :     2.936958
      px      :     1.004339
      py      :     1.003937
      dz2     :     0.008662  d :     0.036354
      dxz     :     0.009136
      dyz     :     0.008837
      dx2y2   :     0.003554
      dxy     :     0.006164

 14 C s       :     3.166520  s :     3.166520
      pz      :     0.990856  p :     2.995359
      px      :     0.993798
      py      :     1.010705
      dz2     :     0.010020  d :     0.034913
      dxz     :     0.007559
      dyz     :     0.006566
      dx2y2   :     0.006478
      dxy     :     0.004288

 15 H s       :     0.863953  s :     0.863953
      pz      :     0.001963  p :     0.012907
      px      :     0.005879
      py      :     0.005065

 16 C s       :     3.081233  s :     3.081233
      pz      :     0.782887  p :     2.824575
      px      :     1.016125
      py      :     1.025564
      dz2     :     0.017134  d :     0.052120
      dxz     :     0.012482
      dyz     :     0.011430
      dx2y2   :     0.004550
      dxy     :     0.006524

 17 H s       :     0.871131  s :     0.871131
      pz      :     0.007713  p :     0.012830
      px      :     0.002423
      py      :     0.002695

 18 H s       :     0.857049  s :     0.857049
      pz      :     0.002303  p :     0.012611
      px      :     0.005616
      py      :     0.004692

 19 H s       :     1.046191  s :     1.046191
      pz      :     0.002685  p :     0.006579
      px      :     0.001061
      py      :     0.002833

 20 B s       :     2.695345  s :     2.695345
      pz      :     0.499788  p :     1.600596
      px      :     0.579674
      py      :     0.521134
      dz2     :     0.016094  d :     0.144907
      dxz     :     0.028635
      dyz     :     0.023304
      dx2y2   :     0.040912
      dxy     :     0.035962

 21 O s       :     3.837802  s :     3.837802
      pz      :     1.642085  p :     4.617246
      px      :     1.367598
      py      :     1.607563
      dz2     :     0.003510  d :     0.024239
      dxz     :     0.005283
      dyz     :     0.005449
      dx2y2   :     0.004887
      dxy     :     0.005110

 22 O s       :     3.842961  s :     3.842961
      pz      :     1.691375  p :     4.610247
      px      :     1.475502
      py      :     1.443370
      dz2     :     0.003926  d :     0.024135
      dxz     :     0.003687
      dyz     :     0.003554
      dx2y2   :     0.007158
      dxy     :     0.005809

 23 C s       :     3.148615  s :     3.148615
      pz      :     0.868902  p :     2.579006
      px      :     0.892028
      py      :     0.818076
      dz2     :     0.012929  d :     0.071093
      dxz     :     0.015198
      dyz     :     0.014933
      dx2y2   :     0.010049
      dxy     :     0.017983

 24 C s       :     3.142532  s :     3.142532
      pz      :     0.962586  p :     2.572244
      px      :     0.717150
      py      :     0.892508
      dz2     :     0.014254  d :     0.071415
      dxz     :     0.010150
      dyz     :     0.014554
      dx2y2   :     0.012509
      dxy     :     0.019948

 25 C s       :     3.241706  s :     3.241706
      pz      :     1.036121  p :     3.080004
      px      :     0.987925
      py      :     1.055959
      dz2     :     0.006631  d :     0.030222
      dxz     :     0.005943
      dyz     :     0.005566
      dx2y2   :     0.003022
      dxy     :     0.009060

 26 H s       :     0.856965  s :     0.856965
      pz      :     0.002259  p :     0.011541
      px      :     0.004002
      py      :     0.005279

 27 H s       :     0.870284  s :     0.870284
      pz      :     0.003263  p :     0.011591
      px      :     0.003536
      py      :     0.004791

 28 H s       :     0.856525  s :     0.856525
      pz      :     0.006380  p :     0.011644
      px      :     0.002449
      py      :     0.002815

 29 C s       :     3.238604  s :     3.238604
      pz      :     0.978216  p :     3.074836
      px      :     1.067645
      py      :     1.028975
      dz2     :     0.004293  d :     0.029817
      dxz     :     0.008172
      dyz     :     0.006653
      dx2y2   :     0.002715
      dxy     :     0.007984

 30 H s       :     0.869100  s :     0.869100
      pz      :     0.002395  p :     0.011541
      px      :     0.003438
      py      :     0.005708

 31 H s       :     0.843316  s :     0.843316
      pz      :     0.003997  p :     0.012686
      px      :     0.005872
      py      :     0.002816

 32 H s       :     0.874363  s :     0.874363
      pz      :     0.003757  p :     0.011648
      px      :     0.004011
      py      :     0.003880

 33 C s       :     3.241630  s :     3.241630
      pz      :     0.976223  p :     3.080365
      px      :     1.050834
      py      :     1.053307
      dz2     :     0.008180  d :     0.030109
      dxz     :     0.001707
      dyz     :     0.008593
      dx2y2   :     0.003202
      dxy     :     0.008428

 34 H s       :     0.856170  s :     0.856170
      pz      :     0.002117  p :     0.011544
      px      :     0.004679
      py      :     0.004748

 35 H s       :     0.872866  s :     0.872866
[...]
freq.     890.58  E(vib)   ...       0.04 
freq.     890.99  E(vib)   ...       0.04 
freq.     903.20  E(vib)   ...       0.03 
freq.     904.85  E(vib)   ...       0.03 
freq.     915.91  E(vib)   ...       0.03 
freq.     921.22  E(vib)   ...       0.03 
freq.     928.18  E(vib)   ...       0.03 
freq.     936.30  E(vib)   ...       0.03 
freq.     938.00  E(vib)   ...       0.03 
freq.     951.91  E(vib)   ...       0.03 
freq.     955.12  E(vib)   ...       0.03 
freq.     965.53  E(vib)   ...       0.03 
freq.     975.11  E(vib)   ...       0.03 
freq.     987.46  E(vib)   ...       0.02 
freq.     992.34  E(vib)   ...       0.02 
freq.     994.70  E(vib)   ...       0.02 
freq.     995.79  E(vib)   ...       0.02 
freq.    1011.98  E(vib)   ...       0.02 
freq.    1016.17  E(vib)   ...       0.02 
freq.    1019.42  E(vib)   ...       0.02 
freq.    1020.93  E(vib)   ...       0.02 
freq.    1031.88  E(vib)   ...       0.02 
freq.    1034.13  E(vib)   ...       0.02 
freq.    1043.58  E(vib)   ...       0.02 
freq.    1069.94  E(vib)   ...       0.02 
freq.    1077.29  E(vib)   ...       0.02 
freq.    1086.92  E(vib)   ...       0.02 
freq.    1091.19  E(vib)   ...       0.02 
freq.    1096.14  E(vib)   ...       0.02 
freq.    1101.68  E(vib)   ...       0.02 
freq.    1113.23  E(vib)   ...       0.01 
freq.    1128.11  E(vib)   ...       0.01 
freq.    1142.59  E(vib)   ...       0.01 
freq.    1158.20  E(vib)   ...       0.01 
freq.    1163.28  E(vib)   ...       0.01 
freq.    1168.59  E(vib)   ...       0.01 
freq.    1188.15  E(vib)   ...       0.01 
freq.    1192.93  E(vib)   ...       0.01 
freq.    1197.42  E(vib)   ...       0.01 
freq.    1208.05  E(vib)   ...       0.01 
freq.    1210.95  E(vib)   ...       0.01 
freq.    1220.59  E(vib)   ...       0.01 
freq.    1239.44  E(vib)   ...       0.01 
freq.    1249.16  E(vib)   ...       0.01 
freq.    1256.09  E(vib)   ...       0.01 
freq.    1263.30  E(vib)   ...       0.01 
freq.    1265.81  E(vib)   ...       0.01 
freq.    1266.08  E(vib)   ...       0.01 
freq.    1273.86  E(vib)   ...       0.01 
freq.    1295.13  E(vib)   ...       0.01 
freq.    1306.77  E(vib)   ...       0.01 
freq.    1310.42  E(vib)   ...       0.01 
freq.    1322.64  E(vib)   ...       0.01 
freq.    1323.55  E(vib)   ...       0.01 
freq.    1330.68  E(vib)   ...       0.01 
freq.    1345.99  E(vib)   ...       0.01 
freq.    1366.65  E(vib)   ...       0.01 
freq.    1384.19  E(vib)   ...       0.00 
freq.    1389.43  E(vib)   ...       0.00 
freq.    1394.97  E(vib)   ...       0.00 
freq.    1401.51  E(vib)   ...       0.00 
freq.    1402.41  E(vib)   ...       0.00 
freq.    1408.41  E(vib)   ...       0.00 
freq.    1415.95  E(vib)   ...       0.00 
freq.    1424.06  E(vib)   ...       0.00 
freq.    1425.83  E(vib)   ...       0.00 
freq.    1429.78  E(vib)   ...       0.00 
freq.    1430.96  E(vib)   ...       0.00 
freq.    1434.86  E(vib)   ...       0.00 
freq.    1436.41  E(vib)   ...       0.00 
freq.    1445.53  E(vib)   ...       0.00 
freq.    1468.97  E(vib)   ...       0.00 
freq.    1480.36  E(vib)   ...       0.00 
freq.    1484.60  E(vib)   ...       0.00 
freq.    1488.09  E(vib)   ...       0.00 
freq.    1489.66  E(vib)   ...       0.00 
freq.    1491.92  E(vib)   ...       0.00 
freq.    1495.92  E(vib)   ...       0.00 
freq.    1496.31  E(vib)   ...       0.00 
freq.    1498.31  E(vib)   ...       0.00 
freq.    1499.09  E(vib)   ...       0.00 
freq.    1499.84  E(vib)   ...       0.00 
freq.    1503.96  E(vib)   ...       0.00 
freq.    1504.66  E(vib)   ...       0.00 
freq.    1509.28  E(vib)   ...       0.00 
freq.    1513.94  E(vib)   ...       0.00 
freq.    1516.18  E(vib)   ...       0.00 
freq.    1519.81  E(vib)   ...       0.00 
freq.    1520.42  E(vib)   ...       0.00 
freq.    1521.94  E(vib)   ...       0.00 
freq.    1524.00  E(vib)   ...       0.00 
freq.    1529.48  E(vib)   ...       0.00 
freq.    1533.01  E(vib)   ...       0.00 
freq.    1535.83  E(vib)   ...       0.00 
freq.    1543.89  E(vib)   ...       0.00 
freq.    1549.90  E(vib)   ...       0.00 
freq.    1555.85  E(vib)   ...       0.00 
freq.    1598.98  E(vib)   ...       0.00 
freq.    1659.56  E(vib)   ...       0.00 
freq.    1690.44  E(vib)   ...       0.00 
freq.    2380.70  E(vib)   ...       0.00 
freq.    2653.27  E(vib)   ...       0.00 
freq.    3057.74  E(vib)   ...       0.00 
freq.    3061.74  E(vib)   ...       0.00 
freq.    3072.31  E(vib)   ...       0.00 
freq.    3074.88  E(vib)   ...       0.00 
freq.    3077.17  E(vib)   ...       0.00 
freq.    3077.69  E(vib)   ...       0.00 
freq.    3080.30  E(vib)   ...       0.00 
freq.    3080.60  E(vib)   ...       0.00 
freq.    3082.32  E(vib)   ...       0.00 
freq.    3083.81  E(vib)   ...       0.00 
freq.    3085.49  E(vib)   ...       0.00 
freq.    3086.87  E(vib)   ...       0.00 
freq.    3115.87  E(vib)   ...       0.00 
freq.    3116.59  E(vib)   ...       0.00 
freq.    3127.00  E(vib)   ...       0.00 
freq.    3154.75  E(vib)   ...       0.00 
freq.    3158.35  E(vib)   ...       0.00 
freq.    3162.58  E(vib)   ...       0.00 
freq.    3164.64  E(vib)   ...       0.00 
freq.    3165.68  E(vib)   ...       0.00 
freq.    3168.07  E(vib)   ...       0.00 
freq.    3172.09  E(vib)   ...       0.00 
freq.    3174.91  E(vib)   ...       0.00 
freq.    3177.35  E(vib)   ...       0.00 
freq.    3180.05  E(vib)   ...       0.00 
freq.    3185.54  E(vib)   ...       0.00 
freq.    3186.78  E(vib)   ...       0.00 
freq.    3191.58  E(vib)   ...       0.00 
freq.    3192.10  E(vib)   ...       0.00 
freq.    3192.58  E(vib)   ...       0.00 
freq.    3193.48  E(vib)   ...       0.00 
freq.    3199.49  E(vib)   ...       0.00 
freq.    3201.69  E(vib)   ...       0.00 
freq.    3209.42  E(vib)   ...       0.00 
freq.    3219.47  E(vib)   ...       0.00 
freq.    3234.15  E(vib)   ...       0.00 
freq.    3252.89  E(vib)   ...       0.00 
freq.    3285.16  E(vib)   ...       0.00 
freq.    3299.12  E(vib)   ...       0.00 
freq.    3311.22  E(vib)   ...       0.00 

------------
INNER ENERGY
------------

The inner energy is: U= E(el) + E(ZPE) + E(vib) + E(rot) + E(trans)
    E(el)   - is the total energy from the electronic structure calculation
              = E(kin-el) + E(nuc-el) + E(el-el) + E(nuc-nuc)
    E(ZPE)  - the the zero temperature vibrational energy from the frequency calculation
    E(vib)  - the the finite temperature correction to E(ZPE) due to population
              of excited vibrational states
    E(rot)  - is the rotational thermal energy
    E(trans)- is the translational thermal energy

Summary of contributions to the inner energy U:
Electronic energy                ...  -1325.53832877 Eh
Zero point energy                ...      0.65639606 Eh     411.89 kcal/mol
Thermal vibrational correction   ...      0.02834370 Eh      17.79 kcal/mol
Thermal rotational correction    ...      0.00141627 Eh       0.89 kcal/mol
Thermal translational correction ...      0.00141627 Eh       0.89 kcal/mol
-----------------------------------------------------------------------
Total thermal energy                  -1324.85075647 Eh


Summary of corrections to the electronic energy:
(perhaps to be used in another calculation)
Total thermal correction                  0.03117624 Eh      19.56 kcal/mol
Non-thermal (ZPE) correction              0.65639606 Eh     411.89 kcal/mol
-----------------------------------------------------------------------
Total correction                          0.68757230 Eh     431.46 kcal/mol


--------
ENTHALPY
--------

The enthalpy is H = U + kB*T
                kB is Boltzmann's constant
Total thermal energy              ...  -1324.85075647 Eh 
Thermal Enthalpy correction       ...      0.00094421 Eh       0.59 kcal/mol
-----------------------------------------------------------------------
Total Enthalpy                    ...  -1324.84981226 Eh


Note: Only C1 symmetry has been detected, increase convergence thresholds 
      if your molecule has a higher symmetry. Symmetry factor of 1.0 is   
      used for the rotational entropy correction. 
 

Note: Rotational entropy computed according to Herzberg 
Infrared and Raman Spectra, Chapter V,1, Van Nostrand Reinhold, 1945 
Point Group:  C1, Symmetry Number:   1  
Rotational constants in cm-1:     0.007887     0.003176     0.002947 

Vibrational entropy computed according to the QRRHO of S. Grimme
Chem.Eur.J. 2012 18 9955 using a reference frequency of 100.0 cm-1


-------
ENTROPY
-------

The entropy contributions are T*S = T*(S(el)+S(vib)+S(rot)+S(trans))
     S(el)   - electronic entropy
     S(vib)  - vibrational entropy
     S(rot)  - rotational entropy
     S(trans)- translational entropy
The entropies will be listed as multiplied by the temperature to get
units of energy

Electronic entropy                ...      0.00000000 Eh      0.00 kcal/mol
Vibrational entropy               ...      0.04869570 Eh     30.56 kcal/mol
Rotational entropy                ...      0.01726335 Eh     10.83 kcal/mol
Translational entropy             ...      0.02095749 Eh     13.15 kcal/mol
-----------------------------------------------------------------------
Final entropy term                ...      0.08691654 Eh     54.54 kcal/mol

In case the symmetry of your molecule has not been determined correctly
or in case you have a reason to use a different symmetry number we print 
out the resulting rotational entropy values for sn=1,12:

 non-linear molecules -----------------------------------
|  sn= 1 | S(rot)=       0.01726335 Eh     10.83 kcal/mol|
|  sn= 2 | S(rot)=       0.01660890 Eh     10.42 kcal/mol|
|  sn= 3 | S(rot)=       0.01622606 Eh     10.18 kcal/mol|
|  sn= 4 | S(rot)=       0.01595444 Eh     10.01 kcal/mol|
|  sn= 5 | S(rot)=       0.01574375 Eh      9.88 kcal/mol|
|  sn= 6 | S(rot)=       0.01557161 Eh      9.77 kcal/mol|
|  sn= 7 | S(rot)=       0.01542606 Eh      9.68 kcal/mol|
|  sn= 8 | S(rot)=       0.01529998 Eh      9.60 kcal/mol|
|  sn= 9 | S(rot)=       0.01518878 Eh      9.53 kcal/mol|
|  sn=10 | S(rot)=       0.01508930 Eh      9.47 kcal/mol|
|  sn=11 | S(rot)=       0.01499931 Eh      9.41 kcal/mol|
|  sn=12 | S(rot)=       0.01491715 Eh      9.36 kcal/mol|
 linear molecules ---------------------------------------
|  Dinfh | S(rot)=       0.01082764 Eh      6.79 kcal/mol|
|  Cinfv | S(rot)=       0.01148209 Eh      7.21 kcal/mol|
 --------------------------------------------------------


-------------------
GIBBS FREE ENERGY
-------------------

The Gibbs free energy is G = H - T*S

Total enthalpy                    ...  -1324.84981226 Eh 
Total entropy correction          ...     -0.08691654 Eh    -54.54 kcal/mol
-----------------------------------------------------------------------
Final Gibbs free energy         ...  -1324.93672881 Eh

For completeness - the Gibbs free energy minus the electronic energy
G-E(el)                           ...      0.60159996 Eh    377.51 kcal/mol


Reading the hessian file           ...... done
Determining length of initial displacement:
  Requested energy change (quadratic behavior): 2.000 mEh
  Resulting scaling factor for initial displacement along normalized TS mode: 0.7303

         *************************************************************
         *                          FORWARD IRC                      *
         *************************************************************

Iteration    E(Eh)      dE(kcal/mol)  max(|G|)   RMS(G) 
Convergence thresholds                0.002000  0.000500            
    0     -1325.539366   -0.650872    0.007352  0.001095
    1     -1325.539745   -0.888403    0.004354  0.000804
    2     -1325.539880   -0.973123    0.003448  0.000588
    3     -1325.540092   -1.106512    0.002974  0.000436
    4     -1325.540312   -1.244369    0.003148  0.000420
    5     -1325.540534   -1.383534    0.002974  0.000419
    6     -1325.540756   -1.523195    0.003032  0.000416
    7     -1325.540979   -1.662950    0.002753  0.000409
    8     -1325.541200   -1.801742    0.002736  0.000403
    9     -1325.541417   -1.938201    0.002451  0.000395
   10     -1325.541629   -2.071138    0.002392  0.000384
   11     -1325.541834   -2.199547    0.002057  0.000373
   12     -1325.542030   -2.322556    0.001979  0.000359

                      ***********************HURRAY********************
                      ***            THE IRC HAS CONVERGED          ***
                      *************************************************


         *************************************************************
         *                          BACKWARD IRC                     *
         *************************************************************

Iteration    E(Eh)      dE(kcal/mol)  max(|G|)   RMS(G) 
Convergence thresholds                0.002000  0.000500            
    0     -1325.540042   -1.075200    0.004244  0.000800
    1     -1325.540223   -1.188564    0.002813  0.000584
    2     -1325.540320   -1.249651    0.002332  0.000456
    3     -1325.540481   -1.350697    0.001660  0.000327

                      ***********************HURRAY********************
                      ***            THE IRC HAS CONVERGED          ***
                      *************************************************


---------------------------------------------------------------
                       IRC PATH SUMMARY              
---------------------------------------------------------------
All gradients are in Eh/Bohr.

Step        E(Eh)      dE(kcal/mol)  max(|G|)   RMS(G) 
   1     -1325.540481   -1.350697    0.001660  0.000327
   2     -1325.540320   -1.249651    0.002332  0.000456
   3     -1325.540223   -1.188564    0.002813  0.000584
   4     -1325.540042   -1.075200    0.004244  0.000800
   5     -1325.538329    0.000000    0.001116  0.000299 <= TS
   6     -1325.539366   -0.650872    0.007352  0.001095
   7     -1325.539745   -0.888403    0.004354  0.000804
   8     -1325.539880   -0.973123    0.003448  0.000588
   9     -1325.540092   -1.106512    0.002974  0.000436
  10     -1325.540312   -1.244369    0.003148  0.000420
  11     -1325.540534   -1.383534    0.002974  0.000419
  12     -1325.540756   -1.523195    0.003032  0.000416
  13     -1325.540979   -1.662950    0.002753  0.000409
  14     -1325.541200   -1.801742    0.002736  0.000403
  15     -1325.541417   -1.938201    0.002451  0.000395
  16     -1325.541629   -2.071138    0.002392  0.000384
  17     -1325.541834   -2.199547    0.002057  0.000373
  18     -1325.542030   -2.322556    0.001979  0.000359

--------------------------------
SUGGESTED CITATIONS FOR THIS RUN
--------------------------------

Below you find a list of papers that are relevant to this ORCA run
We neither can nor want to force you to cite these papers, but we appreciate if you do
You receive ORCA, which is the product of decades of hard work by many enthusiastic individuals, for free
The only thing we kindly ask in return is that you cite our papers,
We deeply appreciate it, if you show your appreciation for ORCA by not just citing the generic ORCA reference.

Please note that relegating all ORCA citations to the supporting information does *not* help us.
SI sections are not indexed - citations you put there will not count into any citation statistics
But we need these citations in order to attract the funding resources that allow us to do what we are doing

Therefore, if you are a happy ORCA user, please consider citing a few of the papers listed below in the main body of your paper

In addition to the list printed below, the program has created the file input.bibtex that contains the list in bibtex format
You can import this file easily into all common literature databanks and citation aid programs


List of essential papers. We consider these as the minimum necessary citations

  1. Neese,F.
     Software update: the ORCA program system, version 5.0
     WIRES Comput. Molec. Sci., 2022 12(1)e1606
     doi.org/10.1002/wcms.1606

List of papers to cite with high priority. The work reported in these papers was absolutely
necessary for this run to complete.
Our perspective: the developers of density functionals and basis sets usually get cited in chemistry papers
Good! But without the algorithms to do something with them, the functionals or basis sets would not do anything.
Hence, in our opinion, the algorithm design and method developments papers are equally worthy of getting cited

  1. Neese,F.
     An improvement of the resolution of the identity approximation for the formation of the Coulomb matrix
     J. Comp. Chem., 2003 24(14)1740-1747
     doi.org/10.1002/jcc.10318
  2. Neese,F.; Wennmohs,F.; Hansen,A.; Becker,U.
     Efficient, approximate and parallel Hartree-Fock and hybrid DFT calculations. A 'chain-of-spheres' algorithm for the Hartree-Fock exchange
     Chem. Phys., 2009 356(1-3)98-109
     doi.org/10.1016/j.chemphys.2008.10.036
  3. Bykov,D.; Petrenko,T.; Izsak,R.; Kossmann,S.; Becker,U.; Valeev,E.; Neese,F.
     Efficient implementation of the analytic second derivatives of Hartree-Fock and hybrid DFT energies: a detailed analysis of different approximations
     Molec. Phys., 2015 113 1961-1977
     doi.org/10.1080/00268976.2015.1025114
  4. Helmich-Paris,B.; de Souza,B.; Neese,F.; Izsák,R.
     An improved chain of spheres for exchange algorithm
     J. Chem. Phys., 2021 155 104109
     doi.org/doi: 10.1063/5.0058766.
  5. Neese,F.
     The SHARK Integral Generation and Digestion System
     J. Comp. Chem., 2022  1-16
     doi.org/10.1002/jcc.26942
  6. Grimme,S.; Antony,J.; Ehrlich,S.; Krieg,H.
     A consistent and accurate ab initio parametrization of density functional dispersion correction (DFT-D) for the 94 elements H-Pu
     J. Chem. Phys., 2010 132 154104
     doi.org/10.1063/1.3382344

List of suggested additional citations. These are papers that are important in the 'surrounding' of 
of this run, or papers that preceded the highly important papers. If you like your results we are grateful for a citation.

  1. Izsak,R.; Neese,F.
     An overlap fitted chain of spheres exchange method
     J. Chem. Phys., 2011 135 144105
     doi.org/10.1063/1.3646921
  2. Izsak,R.; Hansen,A.; Neese,F.
     The resolution of identity and chain of spheres approximations for the LPNO-CCSD singles Fock term
     Molec. Phys., 2012 110 2413-2417
     doi.org/10.1080/00268976.2012.687466
  3. Neese,F.
     The ORCA program system
     WIRES Comput. Molec. Sci., 2012 2(1)73-78
     doi.org/10.1002/wcms.81
  4. Izsak,R.; Neese,F.; Klopper,W.
     Robust fitting techniques in the chain of spheres approximation to the Fock exchange: The role of the complementary space
     J. Chem. Phys., 2013 139 
     doi.org/10.1063/1.4819264
  5. Neese,F.
     Software update: the ORCA program system, version 4.0
     WIRES Comput. Molec. Sci., 2018 8(1)1-6
     doi.org/10.1002/wcms.1327
  6. Neese,F.; Wennmohs,F.; Becker,U.; Riplinger,C.
     The ORCA quantum chemistry program package
     J. Chem. Phys., 2020 152 Art. No. L224108
     doi.org/10.1063/5.0004608

List of optional additional citations

  1. Neese,F.
     Approximate second-order SCF convergence for spin unrestricted wavefunctions
     Chem. Phys. Lett., 2000 325(1-3)93-98
     doi.org/10.1016/s0009-2614(00)00662-x

Timings for individual modules:

Sum of individual times          ...    29691.009 sec (= 494.850 min)
Startup calculation              ...      573.210 sec (=   9.553 min)   1.9 %
SCF iterations                   ...     6257.020 sec (= 104.284 min)  21.1 %
Property calculations            ...        0.847 sec (=   0.014 min)   0.0 %
SCF Gradient evaluation          ...     1355.309 sec (=  22.588 min)   4.6 %
Numerical frequency calculation  ...    21504.623 sec (= 358.410 min)  72.4 %
                             ****ORCA TERMINATED NORMALLY****
TOTAL RUN TIME: 0 days 8 hours 12 minutes 4 seconds 957 msec
