
                                 *****************
                                 * O   R   C   A *
                                 *****************

                                            #,                                       
                                            ###                                      
                                            ####                                     
                                            #####                                    
                                            ######                                   
                                           ########,                                 
                                     ,,################,,,,,                         
                               ,,#################################,,                 
                          ,,##########################################,,             
                       ,#########################################, ''#####,          
                    ,#############################################,,   '####,        
                  ,##################################################,,,,####,       
                ,###########''''           ''''###############################       
              ,#####''   ,,,,##########,,,,          '''####'''          '####       
            ,##' ,,,,###########################,,,                        '##       
           ' ,,###''''                  '''############,,,                           
         ,,##''                                '''############,,,,        ,,,,,,###''
      ,#''                                            '''#######################'''  
     '                                                          ''''####''''         
             ,#######,   #######,   ,#######,      ##                                
            ,#'     '#,  ##    ##  ,#'     '#,    #''#        ,####,    ,#,          
            ##       ##  ##   ,#'  ##            #'  '#       #'       ,# #          
            ##       ##  #######   ##           ,######,      #####,      #          
            '#,     ,#'  ##    ##  '#,     ,#' ,#      #,     #,   #      #          
             '#######'   ##     ##  '#######'  #'      '#     '####' #    #          



                #########################################################
                #                        -***-                          #
                #          Department of theory and spectroscopy        #
                #                                                       #
                #                      Frank Neese                      #
                #                                                       #
                #     Directorship, Architecture, Infrastructure        #
                #                    SHARK, DRIVERS                     #
                #        Core code/Algorithms in most modules           #
                #                                                       #
                #        Max Planck Institute fuer Kohlenforschung      #
                #                Kaiser Wilhelm Platz 1                 #
                #                 D-45470 Muelheim/Ruhr                 #
                #                      Germany                          #
                #                                                       #
                #                  All rights reserved                  #
                #                        -***-                          #
                #########################################################


                         Program Version 6.1.0  -  RELEASE   -
                                (GIT: $679e74b$)
                          ($2025-06-10 18:02:51 +0200$)


 With contributions from (in alphabetic order):
[Max-Planck-Institut fuer Kohlenforschung]                               
  Daniel Aravena         : Magnetic Suceptibility                        
  Michael Atanasov       : Ab Initio Ligand Field Theory (pilot matlab implementation)
  Alexander A. Auer      : GIAO ZORA, VPT2 properties, NMR spectrum      
  Ute Becker             : All parallelization in ORCA, NUMFREQ, NUMCALC 
  Giovanni Bistoni       : ED, misc. LED, open-shell LED, HFLD           
  Dmytro Bykov           : pre 5.0 version of the SCF Hessian            
  Marcos Casanova-Páez   : Triplet and SCS-CIS(D). UHF-(DLPNO)-IP/EA/STEOM-CCSD. UHF-CVS-IP/STEOM-CCSD   
  Vijay G. Chilkuri      : MRCI spin determinant printing, contributions to CSF-ICE 
  Pauline Colinet        : FMM embedding                                 
  Dipayan Datta          : RHF DLPNO-CCSD density                        
  Achintya Kumar Dutta   : EOM-CC, STEOM-CC                              
  Nicolas Foglia         : Exact transition moments, OPA infrastructure, MCD improvements    
  Dmitry Ganyushin       : Spin-Orbit,Spin-Spin,Magnetic field MRCI      
  Miquel Garcia-Rates    : C-PCM and meta-GGA Hessian, CCSD/C-PCM, Gaussian charge scheme 
  Tiago L. C. Gouveia    : GS-ROHF, GS-ROCIS                             
  Yang Guo               : DLPNO-NEVPT2, F12-NEVPT2, CIM, IAO-localization        
  Andreas Hansen         : Spin unrestricted coupled pair/coupled cluster methods 
  Ingolf Harden          : AUTO-CI MPn and infrastructure                
  Benjamin Helmich-Paris : MC-RPA, TRAH-(SCF,CASSCF), AVAS, COSX integrals, SCF dyn. polar., MC-PDFT, srDFT 
  Lee Huntington         : MR-EOM, pCC                                   
  Robert Izsak           : Overlap fitted RIJCOSX, COSX-SCS-MP3, EOM     
  Riya Kayal             : Wick's Theorem for AUTO-CI, AUTO-CI UHF-CCSDT 
  Emily Kempfer          : AUTO-CI RHF CISDT and CCSDT, approximate NEVPT4
  Christian Kollmar      : KDIIS, OOCD, Brueckner-CCSD(T), CCSD density, CASPT2, CASPT2-K, improved NEVPT2 
  Axel Koslowski         : Symmetry handling                             
  Simone Kossmann        : meta-GGA functionals, TD-DFT gradient, OOMP2, (MP2 Hessian; deprecated post 5.0) 
  Lucas Lang             : DCDCAS, Hyperfine gauge corrections, ICE-SOC+SSC
  Marvin Lechner         : AUTO-CI (C++ implementation), FIC-MRCC        
  Spencer Leger          : CASSCF response                               
  Dagmar Lenk            : GEPOL surface, SMD, ORCA-2-JSON               
  Dimitrios Liakos       : Extrapolation schemes; Compound Job, Property file
  Dimitrios Manganas     : Further ROCIS development; embedding schemes. LFT, Crystal Embedding 
  Dimitrios Pantazis     : SARC Basis sets                               
  Anastasios Papadopoulos: AUTO-CI, single reference methods and gradients 
  Taras Petrenko         : pre 6.0 DFT Hessian and TD-DFT gradient,  ECA, NRVS 
  Petra Pikulova         : Analytic Raman intensities                    
  Peter Pinski           : DLPNO-MP2, DLPNO-MP2 Gradient                 
  Shashank Vittal Rao    : ES-AILFT, MagRelax                            
  Christoph Reimann      : Effective Core Potentials                     
  Marius Retegan         : Local ZFS, SOC                                
  Christoph Riplinger    : Optimizer, TS searches, QM/MM, DLPNO-CCSD(T), (RO)-DLPNO pert. Triples 
  Michael Roemelt        : Original ROCIS implementation, recursive CI coupling coefficients
  Masaaki Saitow         : Open-shell DLPNO-CCSD energy and density      
  Barbara Sandhoefer     : DKH picture change effects                    
  Yorick L. A. Schmerwitz: GMF and freeze-and-release deltaSCF, NEB S-IDPP initial path                    
  Kantharuban Sivalingam : CASSCF convergence/infrastructure, NEVPT2, NEVPT3, NEVPT4(SD), FIC-MRCI and CEPA variants
  Bernardo de Souza      : ESD, SOC TD-DFT                               
  Georgi L. Stoychev     : AutoAux, RI-MP2 NMR, DLPNO-MP2 response, X2C  
  Van Anh Tran           : RI-MP2 g-tensors                              
  Willem Van den Heuvel  : Paramagnetic NMR                              
  Zikuan Wang            : NOTCH, Electric field optimization            
  Frank Wennmohs         : Technical directorship and infrastructure     
  Hang Xu                : AUTO-CI-Response properties                   
                                                                         
[FACCTs GmbH]                                                            
  Markus Bursch, Nicolas Foglia, Miquel Garcia-Rates, Ingolf Harden, Hagen Neugebauer, Anastasios Papadopoulos, 
  Christoph Riplinger, Bernardo de Souza, Georgi L. Stoychev                                                    
                                                                 
  APM, various basis sets, CI-OPT, improved COSX, DLPNO-Multilevel,           
  DOCKER, DRACO, updates on ESD, Fragmentator, GOAT, IRC, LR-CPCM, L-BFGS, MBIS, meta-GGA TD-DFT gradient, ML-optimized integration grids, 
  MM, NACMEs, nearIR, NEB, NEB-TS, NL-DFT gradient (VV10), 2- and 3-layer-ONIOM, interface openCOSMO-RS, QMMM,   
  Crystal-QMMM, RESP, rigid body optimization, SF, symmetry and pop. for TD-DFT, various functionals, SOLVATOR                                   
                                                                         
[Other institutions]                                                     
  V. Asgeirsson          : NEB                                           
  Christoph Bannwarth    : sTDA-DFT, sTD-DFT, PBEh-3c, B97-3c, D3        
  Giovanni Bistoni       : ETS/NOCV, ADLD/ADEX, COVALED                  
  Martin Brehm           : Molecular dynamics                            
  Ronald Cardenas        : ETS/NOCV                                      
  Martina Colucci        : COVALED                                       
  Sebastian Ehlert       : rSCAN, r2SCAN, r2SCAN-3c, D4, dhf basis sets  
  Marvin Friede          : D4 for Fr, Ra, Ac-Lr                          
  Lars Goerigk           : TD-DFT with DH, B97 family of functionals     
  Stefan Grimme          : VdW corrections, initial TS optimization, DFT functionals, gCP, sTDA/sTD-DF 
  Waldemar Hujo          : DFT-NL                                        
  H. Jonsson             : NEB                                           
  Holger Kruse           : gCP                                           
  Marcel Mueller         : wB97X-3c, vDZP basis set                      
  Hagen Neugebauer       : wr2SCAN, Native XTB                           
  Gianluca Regni         : ADLD/ADEX                                     
  Tobias Risthaus        : pre 6.0 range-separated hybrid DFT and stability analysis
  Lukas Wittmann         : regularized MP2, r2SCAN double-hybrids, wr2SCAN        
                                                                         
We gratefully acknowledge several colleagues who have allowed us to      
interface, adapt or use parts of their codes:                            
  Ed Valeev, F. Pavosevic, A. Kumar             : LibInt (2-el integral package), F12 methods 
  Garnet Chan, S. Sharma, J. Yang, R. Olivares  : DMRG                   
  Ulf Ekstrom                                   : XCFun DFT Library      
  Mihaly Kallay                                 : mrcc  (arbitrary order and MRCC methods)
  Frank Weinhold                                : gennbo (NPA and NBO analysis)           
  Simon Mueller                                 : openCOSMO-RS                            
  Christopher J. Cramer and Donald G. Truhlar   : smd solvation model                     
  S Lehtola, MJT Oliveira, MAL Marques          : LibXC Library                           
  Liviu Ungur et al                             : ANISO software                          


 Your calculation uses the libint2 library for the computation of 2-el integrals
 For citations please refer to: http://libint.valeyev.net

 Your ORCA version has been built with support for libXC version: 7.0.0
 For citations please refer to: https://libxc.gitlab.io

 This ORCA versions uses:
   CBLAS   interface :  Fast vector & matrix operations
   LAPACKE interface :  Fast linear algebra routines
   SCALAPACK package :  Parallel linear algebra routines
   Shared memory     :  Shared parallel matrices
   BLAS/LAPACK       :  OpenBLAS 0.3.29  USE64BITINT DYNAMIC_ARCH NO_AFFINITY Zen SINGLE_THREADED
        Core in use  :  Zen
   Copyright (c) 2011-2014, The OpenBLAS Project


  ***********************************
  * Starting time: Tue Jul 29 10:52:23 2025
  * Host name:     node067.cluster
  * Process ID:    2426816
  * Working dir.:  /scratch/53217189/_tvbdiv
  ***********************************

NOTE: MaxCore=4129 MB was set to SCF,MP2,MDCI,CIPSI,MRCI,RASCI and CIS
      => If you want to overwrite this, your respective input block should be placed after the MaxCore statement
Your calculation utilizes the atom-pairwise dispersion correction
with the zero-damping scheme (D30)


XCFun DFT library Copyright 2009-2010 Ulf Ekstrom and contributors.
See http://admol.org/xcfun for more information.
This is free software; see the source code for copying conditions.
There is ABSOLUTELY NO WARRANTY; not even for MERCHANTABILITY or FITNESS FOR A PARTICULAR PURPOSE.
For details see the documentation.
Scientific users of this library should cite U. Ekstrom, L. Visscher, R. Bast, A. J. Thorvaldsen and K. Ruud;
J.Chem.Theor.Comp. 2010, DOI: 10.1021/ct100117s
XCFun Version 0.99 

Warning: RI is on but no J-basis has been assigned. Assigning Def2/J (nothing to worry about!)
================================================================================

----- Orbital basis set information -----
Your calculation utilizes the basis: 6-31G**
   H-He, Li-Ne : W. J. Hehre, R. Ditchfield and J.A. Pople, J. Chem. Phys. 56, 2257 (1972).
                 Note: He and Ne are unpublished basis sets taken from the Gaussian program.
                 Note: Li and B from J. D. Dill and J. A. Pople, J. Chem. Phys. 62, 2921 (1975).
   Na - Ar     : M. M. Francl, W. J. Pietro, W. J. Hehre, J. S. Binkley, M. S. Gordon, 
                 D. J. DeFrees and J. A. Pople, J. Chem. Phys. 77, 3654 (1982).
   K - Zn      : V. A. Rassolov, J. A. Pople, M. A. Ratner, and T. L. Windus, J. Chem. Phys. 109, 1223 (1998).

----- AuxJ basis set information -----
Your calculation utilizes the auxiliary basis: def2/J
   H-Rn: F. Weigend, Phys. Chem. Chem. Phys. 8, 1057 (2006).
   Fr-Lr: K. Eichkorn, F. Weigend, O. Treutler, R. Ahlrichs; Theor. Chem. Acc. 97, 119 (1997).

================================================================================
                                        WARNINGS
                       Please study these warnings very carefully!
================================================================================


WARNING: Geometry Optimization
  ===> : Switching off AutoStart
         For restart on a previous wavefunction, please use MOREAD

================================================================================
                                       INPUT FILE
================================================================================
NAME = input.inp
|  1> # Automatically generated ORCA input
|  2> 
|  3> # Number of cores
|  4> %pal nprocs 62 end
|  5> # RAM per core
|  6> %maxcore 4129
|  7> 
|  8> ! wB97X-D3 
|  9> ! 6-31G** 
| 10> ! TightSCF 
| 11> ! SlowConv 
| 12> ! Opt 
| 13> ! Freq 
| 14> ! NoSym 
| 15> 
| 16> %geom
| 17>   Calc_Hess true
| 18> end
| 19> %Output
| 20>   JSONPropFile True
| 21> End
| 22> 
| 23> 
| 24> *xyz 0 1 
| 25> C        -1.90634600     -2.20990100      0.81984200
| 26> C        -0.59133700     -1.76362400      0.86202400
| 27> C        -0.25855600     -0.40195300      0.75165600
| 28> C        -1.30651400      0.51951600      0.55464100
| 29> C        -2.63032600      0.05759600      0.52777800
| 30> C        -2.93746600     -1.28894700      0.66360500
| 31> H        -2.12464100     -3.27036400      0.91263600
| 32> H         0.20536000     -2.49128800      0.99955900
| 33> H        -3.43016200      0.78138500      0.39541100
| 34> H        -3.97326100     -1.61654500      0.63950200
| 35> B         1.25656600      0.07702900      0.90209800
| 36> H         1.98198800     -0.77685600      0.28428100
| 37> C         1.81681500      0.08015100      2.49447400
| 38> C         1.16485000     -0.49604400      3.58012900
| 39> C         1.40350400      0.14520600      4.81051900
| 40> H         0.54265900     -1.37597300      3.46111000
| 41> C         2.23701900      1.22910900      4.66033600
| 42> H         0.98571800     -0.16934600      5.75871500
| 43> H         2.57652400      1.90321100      5.43680100
| 44> B         2.62865100     -1.07565200      1.46391800
| 45> O         3.99174100     -0.79761600      1.31415500
| 46> O         2.40580300     -2.43791000      1.72114200
| 47> C         4.66348500     -2.06699000      1.26096900
| 48> C         3.68912300     -2.98769300      2.06858500
| 49> C         4.77649600     -2.47414300     -0.20952900
| 50> H         5.27345600     -1.66980100     -0.75784800
| 51> H         5.36105100     -3.39052900     -0.33367800
| 52> H         3.78859500     -2.62865600     -0.65351000
| 53> C         6.04566600     -1.90469900      1.87702900
| 54> H         6.65488900     -1.24933400      1.24900400
| 55> H         5.98413700     -1.45722100      2.87063900
| 56> H         6.55405200     -2.87156700      1.95382700
| 57> C         3.86558400     -2.84874100      3.58276200
| 58> H         3.01663400     -3.32536100      4.08073700
| 59> H         4.78388000     -3.33129100      3.92991200
| 60> H         3.88947700     -1.79741100      3.88560600
| 61> C         3.70756800     -4.45411400      1.66381400
| 62> H         4.70247100     -4.88674900      1.81210400
| 63> H         2.99844400     -5.01648900      2.27732400
| 64> H         3.42270100     -4.57903100      0.61770200
| 65> N        -1.03019500      1.91738200      0.39301100
| 66> S         2.72250700      1.46115000      3.05009800
| 67> H         1.63520800      1.09026900      0.39716200
| 68> C        -1.37569200      2.82737100      1.50924700
| 69> C        -1.01574600      2.47866700     -0.99074000
| 70> C        -2.75547700      3.51799000      1.28907100
| 71> C        -0.26787800      3.88928100      1.67994500
| 72> C        -1.42224300      2.06395300      2.83998200
| 73> C        -3.13977700      3.63394400     -0.19217200
| 74> H        -2.72667000      4.51398500      1.74839400
| 75> H        -3.53427300      2.96069100      1.82336900
| 76> C        -1.90481600      3.74838900     -1.07529600
| 77> C        -1.55161200      1.46617200     -2.01900800
| 78> C         0.41806000      2.83495900     -1.42610200
| 79> H        -2.19232200      3.89742700     -2.12221800
| 80> H        -1.33283900      4.64015800     -0.79559100
| 81> H        -3.80477500      4.49014200     -0.34762200
| 82> H        -3.71207700      2.75008900     -0.49993400
| 83> H        -1.42548200      1.88707500     -3.02128600
| 84> H        -2.61257900      1.24425600     -1.87614100
| 85> H        -1.00511500      0.52065900     -1.97860000
| 86> H         0.40328200      3.35904500     -2.38939700
| 87> H         1.02261100      1.93152300     -1.53990700
| 88> H         0.91421500      3.47741400     -0.69598700
| 89> H        -0.19996300      4.58088000      0.83883300
| 90> H         0.70130700      3.39516600      1.79464100
| 91> H        -0.46165600      4.48906100      2.57593600
| 92> H        -2.18168700      1.27950000      2.84621500
| 93> H        -1.66071800      2.77164900      3.64049200
| 94> H        -0.45589500      1.60675900      3.06870600
| 95> *
| 96> 
| 97> 
| 98>                          ****END OF INPUT****
================================================================================

                       *****************************
                       * Geometry Optimization Run *
                       *****************************

Geometry optimization settings:
Update method            Update   .... BFGS
Choice of coordinates    CoordSys .... (2022) Redundant Internals
Initial Hessian          InHess   .... Almloef's Model
Max. no of cycles        MaxIter  .... 210

Convergence Tolerances:
Energy Change            TolE     ....  5.0000e-06 Eh
Max. Gradient            TolMAXG  ....  3.0000e-04 Eh/bohr
RMS Gradient             TolRMSG  ....  1.0000e-04 Eh/bohr
Max. Displacement        TolMAXD  ....  4.0000e-03 bohr
RMS Displacement         TolRMSD  ....  2.0000e-03 bohr
Strict Convergence                .... False

------------------------------------------------------------------------------
                        ORCA OPTIMIZATION COORDINATE SETUP
------------------------------------------------------------------------------

The optimization will be done in redundant internal coordinates (2022)
Making redundant internal coordinates   ...  (2022 redundants) done
Evaluating the initial hessian          ...  (Is done on the fly) done
Evaluating the coordinates              ...  done
Calculating the B-matrix                .... done
Calculating the G-matrix                .... done
The number of degrees of freedom        ....  407

    -----------------------------------------------------------------
                    Redundant Internal Coordinates


    -----------------------------------------------------------------
         Definition                    Initial Value    d2E/dq (diagonal element)
    -----------------------------------------------------------------
      1. B(C   1,C   0)                  1.3893         0.000000   
      2. B(C   2,C   1)                  1.4061         0.000000   
      3. B(C   3,C   2)                  1.4093         0.000000   
      4. B(C   4,C   3)                  1.4023         0.000000   
      5. B(C   5,C   4)                  1.3878         0.000000   
      6. B(C   5,C   0)                  1.3913         0.000000   
      7. B(H   6,C   0)                  1.0867         0.000000   
      8. B(H   7,C   1)                  1.0877         0.000000   
      9. B(H   8,C   4)                  1.0868         0.000000   
     10. B(H   9,C   5)                  1.0866         0.000000   
     11. B(B  10,C   2)                  1.5961         0.000000   
     12. B(H  11,B  10)                  1.2795         0.000000   
     13. B(C  12,B  10)                  1.6881         0.000000   
     14. B(C  13,C  12)                  1.3913         0.000000   
     15. B(C  14,C  13)                  1.4078         0.000000   
     16. B(H  15,C  13)                  1.0842         0.000000   
     17. B(C  16,C  14)                  1.3756         0.000000   
     18. B(H  17,C  14)                  1.0828         0.000000   
     19. B(H  18,C  16)                  1.0829         0.000000   
     20. B(B  19,C  12)                  1.7484         0.000000   
     21. B(B  19,H  11)                  1.3780         0.000000   
     22. B(B  19,B  10)                  1.8780         0.000000   
     23. B(O  20,B  19)                  1.3992         0.000000   
     24. B(O  21,B  19)                  1.4041         0.000000   
     25. B(C  22,O  20)                  1.4371         0.000000   
     26. B(C  23,C  22)                  1.5650         0.000000   
     27. B(C  23,O  21)                  1.4387         0.000000   
     28. B(C  24,C  22)                  1.5300         0.000000   
     29. B(H  25,C  24)                  1.0930         0.000000   
     30. B(H  26,C  24)                  1.0940         0.000000   
     31. B(H  27,C  24)                  1.0940         0.000000   
     32. B(C  28,C  22)                  1.5219         0.000000   
     33. B(H  29,C  28)                  1.0932         0.000000   
     34. B(H  30,C  28)                  1.0915         0.000000   
     35. B(H  31,C  28)                  1.0951         0.000000   
     36. B(C  32,C  23)                  1.5307         0.000000   
     37. B(H  33,C  32)                  1.0936         0.000000   
     38. B(H  34,C  32)                  1.0939         0.000000   
     39. B(H  35,C  32)                  1.0943         0.000000   
     40. B(C  36,C  23)                  1.5214         0.000000   
     41. B(H  37,C  36)                  1.0950         0.000000   
     42. B(H  38,C  36)                  1.0934         0.000000   
     43. B(H  39,C  36)                  1.0914         0.000000   
     44. B(N  40,C   3)                  1.4341         0.000000   
     45. B(S  41,C  16)                  1.6978         0.000000   
     46. B(S  41,C  12)                  1.7425         0.000000   
     47. B(H  42,B  10)                  1.1937         0.000000   
     48. B(C  43,N  40)                  1.4810         0.000000   
     49. B(C  44,N  40)                  1.4933         0.000000   
     50. B(C  45,C  43)                  1.5586         0.000000   
     51. B(C  46,C  43)                  1.5440         0.000000   
     52. B(C  47,C  43)                  1.5349         0.000000   
     53. B(C  48,C  45)                  1.5347         0.000000   
     54. B(H  49,C  45)                  1.0972         0.000000   
     55. B(H  50,C  45)                  1.0966         0.000000   
     56. B(C  51,C  48)                  1.5225         0.000000   
     57. B(C  51,C  44)                  1.5523         0.000000   
     58. B(C  52,C  44)                  1.5394         0.000000   
     59. B(C  53,C  44)                  1.5402         0.000000   
     60. B(H  54,C  51)                  1.0959         0.000000   
     61. B(H  55,C  51)                  1.0957         0.000000   
     62. B(H  56,C  48)                  1.0952         0.000000   
     63. B(H  57,C  48)                  1.0970         0.000000   
     64. B(H  58,C  52)                  1.0944         0.000000   
     65. B(H  59,C  52)                  1.0933         0.000000   
     66. B(H  60,C  52)                  1.0928         0.000000   
     67. B(H  61,C  53)                  1.0967         0.000000   
     68. B(H  62,C  53)                  1.0930         0.000000   
     69. B(H  63,C  53)                  1.0918         0.000000   
     70. B(H  64,C  46)                  1.0911         0.000000   
     71. B(H  65,C  46)                  1.0939         0.000000   
     72. B(H  66,C  46)                  1.0955         0.000000   
     73. B(H  67,C  47)                  1.0919         0.000000   
     74. B(H  68,C  47)                  1.0948         0.000000   
     75. B(H  69,C  47)                  1.0932         0.000000   
     76. A(C   1,C   0,H   6)          120.0677         0.000000   
     77. A(C   1,C   0,C   5)          119.4890         0.000000   
     78. A(C   5,C   0,H   6)          120.4428         0.000000   
     79. A(C   2,C   1,H   7)          118.9748         0.000000   
     80. A(C   0,C   1,H   7)          118.8306         0.000000   
     81. A(C   0,C   1,C   2)          122.1885         0.000000   
     82. A(C   1,C   2,B  10)          120.5221         0.000000   
     83. A(C   3,C   2,B  10)          121.5217         0.000000   
     84. A(C   1,C   2,C   3)          117.9161         0.000000   
     85. A(C   2,C   3,N  40)          120.6521         0.000000   
     86. A(C   4,C   3,N  40)          120.0539         0.000000   
     87. A(C   2,C   3,C   4)          119.2922         0.000000   
     88. A(C   3,C   4,H   8)          118.5357         0.000000   
     89. A(C   5,C   4,H   8)          119.6850         0.000000   
     90. A(C   3,C   4,C   5)          121.7793         0.000000   
     91. A(C   0,C   5,C   4)          119.2897         0.000000   
     92. A(C   0,C   5,H   9)          120.6218         0.000000   
     93. A(C   4,C   5,H   9)          120.0867         0.000000   
     94. A(C  12,B  10,B  19)           58.4297         0.000000   
     95. A(C   2,B  10,B  19)          122.5157         0.000000   
     96. A(H  11,B  10,H  42)          100.5084         0.000000   
     97. A(C   2,B  10,H  11)          107.0022         0.000000   
     98. A(H  11,B  10,B  19)           47.2037         0.000000   
     99. A(C   2,B  10,H  42)          121.0604         0.000000   
    100. A(B  19,B  10,H  42)          114.5681         0.000000   
    101. A(C   2,B  10,C  12)          113.8604         0.000000   
    102. A(C  12,B  10,H  42)          106.9880         0.000000   
    103. A(H  11,B  10,C  12)          105.5786         0.000000   
    104. A(B  10,H  11,B  19)           89.8519         0.000000   
    105. A(C  13,C  12,B  19)          113.8127         0.000000   
    106. A(B  10,C  12,B  19)           66.2262         0.000000   
    107. A(B  10,C  12,C  13)          125.4363         0.000000   
    108. A(C  13,C  12,S  41)          108.8431         0.000000   
    109. A(B  10,C  12,S  41)          118.3446         0.000000   
    110. A(B  19,C  12,S  41)          118.0685         0.000000   
    111. A(C  14,C  13,H  15)          124.2546         0.000000   
    112. A(C  12,C  13,H  15)          121.2891         0.000000   
    113. A(C  12,C  13,C  14)          114.4495         0.000000   
    114. A(C  16,C  14,H  17)          123.9374         0.000000   
    115. A(C  13,C  14,H  17)          124.5804         0.000000   
    116. A(C  13,C  14,C  16)          111.4822         0.000000   
    117. A(C  14,C  16,H  18)          127.0295         0.000000   
    118. A(C  14,C  16,S  41)          112.6141         0.000000   
    119. A(H  18,C  16,S  41)          120.3544         0.000000   
    120. A(O  20,B  19,O  21)          111.5312         0.000000   
    121. A(C  12,B  19,O  21)          117.3659         0.000000   
    122. A(H  11,B  19,O  21)          107.0198         0.000000   
    123. A(B  10,B  19,O  21)          122.2981         0.000000   
    124. A(C  12,B  19,O  20)          112.5861         0.000000   
    125. A(H  11,B  19,O  20)          108.8107         0.000000   
    126. A(B  10,B  19,C  12)           55.3441         0.000000   
    127. A(B  10,B  19,O  20)          123.9015         0.000000   
    128. A(H  11,B  19,C  12)           98.2408         0.000000   
    129. A(B  10,B  19,H  11)           42.9445         0.000000   
    130. A(B  19,O  20,C  22)          106.4872         0.000000   
    131. A(B  19,O  21,C  23)          105.8675         0.000000   
    132. A(C  24,C  22,C  28)          110.5081         0.000000   
    133. A(O  20,C  22,C  28)          108.3806         0.000000   
    134. A(C  23,C  22,C  28)          114.7879         0.000000   
    135. A(C  23,C  22,C  24)          112.6687         0.000000   
    136. A(O  20,C  22,C  24)          107.7666         0.000000   
    137. A(O  20,C  22,C  23)          102.0941         0.000000   
    138. A(C  22,C  23,C  36)          114.9739         0.000000   
    139. A(C  32,C  23,C  36)          110.4430         0.000000   
    140. A(O  21,C  23,C  22)          101.8827         0.000000   
    141. A(O  21,C  23,C  36)          108.3546         0.000000   
    142. A(C  22,C  23,C  32)          112.6612         0.000000   
    143. A(O  21,C  23,C  32)          107.8798         0.000000   
    144. A(H  26,C  24,H  27)          108.5497         0.000000   
    145. A(H  25,C  24,H  27)          108.1146         0.000000   
    146. A(C  22,C  24,H  27)          111.1566         0.000000   
    147. A(H  25,C  24,H  26)          108.4546         0.000000   
    148. A(C  22,C  24,H  25)          108.6576         0.000000   
    149. A(C  22,C  24,H  26)          111.8043         0.000000   
    150. A(H  29,C  28,H  31)          108.1122         0.000000   
    151. A(C  22,C  28,H  31)          110.8458         0.000000   
    152. A(H  29,C  28,H  30)          107.9760         0.000000   
    153. A(C  22,C  28,H  30)          111.1628         0.000000   
    154. A(C  22,C  28,H  29)          109.7244         0.000000   
    155. A(H  30,C  28,H  31)          108.9238         0.000000   
    156. A(C  23,C  32,H  35)          111.3131         0.000000   
    157. A(H  33,C  32,H  35)          108.0379         0.000000   
    158. A(H  33,C  32,H  34)          108.3560         0.000000   
    159. A(C  23,C  32,H  34)          111.7553         0.000000   
    160. A(C  23,C  32,H  33)          108.7469         0.000000   
    161. A(H  34,C  32,H  35)          108.5201         0.000000   
    162. A(H  38,C  36,H  39)          108.0400         0.000000   
    163. A(H  37,C  36,H  39)          108.7685         0.000000   
    164. A(C  23,C  36,H  39)          111.2342         0.000000   
    165. A(H  37,C  36,H  38)          108.0633         0.000000   
    166. A(C  23,C  36,H  38)          109.7923         0.000000   
    167. A(C  23,C  36,H  37)          110.8437         0.000000   
    168. A(C  43,N  40,C  44)          118.0151         0.000000   
    169. A(C   3,N  40,C  44)          118.2085         0.000000   
    170. A(C   3,N  40,C  43)          117.9714         0.000000   
    171. A(C  12,S  41,C  16)           92.6066         0.000000   
    172. A(C  46,C  43,C  47)          105.5444         0.000000   
    173. A(C  45,C  43,C  47)          108.4223         0.000000   
    174. A(N  40,C  43,C  47)          110.7885         0.000000   
    175. A(C  45,C  43,C  46)          110.2452         0.000000   
    176. A(N  40,C  43,C  46)          109.7869         0.000000   
    177. A(N  40,C  43,C  45)          111.8578         0.000000   
    178. A(C  52,C  44,C  53)          106.7021         0.000000   
    179. A(C  51,C  44,C  53)          109.1808         0.000000   
    180. A(N  40,C  44,C  53)          110.9698         0.000000   
    181. A(C  51,C  44,C  52)          107.5916         0.000000   
    182. A(N  40,C  44,C  52)          111.6159         0.000000   
    183. A(N  40,C  44,C  51)          110.6319         0.000000   
    184. A(H  49,C  45,H  50)          106.0218         0.000000   
    185. A(C  48,C  45,H  50)          109.3186         0.000000   
    186. A(C  43,C  45,H  50)          109.5537         0.000000   
    187. A(C  48,C  45,H  49)          110.0018         0.000000   
    188. A(C  43,C  45,H  49)          108.6541         0.000000   
    189. A(C  43,C  45,C  48)          113.0484         0.000000   
    190. A(H  65,C  46,H  66)          108.5584         0.000000   
    191. A(C  43,C  46,H  66)          109.8800         0.000000   
    192. A(H  64,C  46,H  65)          108.1801         0.000000   
    193. A(C  43,C  46,H  65)          109.6707         0.000000   
    194. A(C  43,C  46,H  64)          113.2901         0.000000   
    195. A(H  64,C  46,H  66)          107.1269         0.000000   
    196. A(H  68,C  47,H  69)          108.0535         0.000000   
    197. A(H  67,C  47,H  69)          108.2501         0.000000   
    198. A(C  43,C  47,H  69)          111.2593         0.000000   
    199. A(H  67,C  47,H  68)          107.9837         0.000000   
    200. A(C  43,C  47,H  68)          108.6051         0.000000   
    201. A(C  43,C  47,H  67)          112.5439         0.000000   
    202. A(H  56,C  48,H  57)          105.8597         0.000000   
    203. A(C  51,C  48,H  57)          108.7226         0.000000   
    204. A(C  45,C  48,H  57)          109.9098         0.000000   
    205. A(C  51,C  48,H  56)          110.5738         0.000000   
    206. A(C  45,C  48,H  56)          110.3719         0.000000   
    207. A(C  45,C  48,C  51)          111.2480         0.000000   
    208. A(H  54,C  51,H  55)          105.6721         0.000000   
    209. A(C  48,C  51,H  55)          109.6648         0.000000   
    210. A(C  44,C  51,H  55)          110.6593         0.000000   
    211. A(C  48,C  51,H  54)          110.5821         0.000000   
    212. A(C  44,C  51,H  54)          108.2724         0.000000   
    213. A(C  44,C  51,C  48)          111.8064         0.000000   
    214. A(C  44,C  52,H  58)          108.5833         0.000000   
    215. A(H  59,C  52,H  60)          107.7483         0.000000   
    216. A(H  58,C  52,H  60)          107.9984         0.000000   
    217. A(C  44,C  52,H  60)          111.7335         0.000000   
    218. A(H  58,C  52,H  59)          108.0347         0.000000   
    219. A(C  44,C  52,H  59)          112.5836         0.000000   
    220. A(H  62,C  53,H  63)          107.7379         0.000000   
    221. A(H  61,C  53,H  63)          108.1980         0.000000   
    222. A(C  44,C  53,H  63)          111.7244         0.000000   
    223. A(H  61,C  53,H  62)          108.1186         0.000000   
    224. A(C  44,C  53,H  62)          110.6786         0.000000   
    225. A(C  44,C  53,H  61)          110.2593         0.000000   
    226. D(C   2,C   1,C   0,H   6)   -179.7468         0.000000   
    227. D(H   7,C   1,C   0,H   6)     -0.6568         0.000000   
    228. D(H   7,C   1,C   0,C   5)    179.0886         0.000000   
    229. D(C   2,C   1,C   0,C   5)     -0.0013         0.000000   
    230. D(B  10,C   2,C   1,C   0)    175.9226         0.000000   
    231. D(C   3,C   2,C   1,H   7)    179.1010         0.000000   
    232. D(B  10,C   2,C   1,H   7)     -3.1661         0.000000   
    233. D(C   3,C   2,C   1,C   0)     -1.8102         0.000000   
    234. D(N  40,C   3,C   2,C   1)   -178.0659         0.000000   
    235. D(N  40,C   3,C   2,B  10)      4.2251         0.000000   
    236. D(C   4,C   3,C   2,B  10)   -175.2943         0.000000   
    237. D(C   4,C   3,C   2,C   1)      2.4146         0.000000   
    238. D(C   5,C   4,C   3,N  40)    179.1731         0.000000   
    239. D(H   8,C   4,C   3,C   2)    178.7660         0.000000   
    240. D(H   8,C   4,C   3,N  40)     -0.7564         0.000000   
    241. D(C   5,C   4,C   3,C   2)     -1.3045         0.000000   
    242. D(H   9,C   5,C   4,H   8)     -0.1192         0.000000   
    243. D(H   9,C   5,C   4,C   3)    179.9521         0.000000   
    244. D(C   0,C   5,C   4,C   3)     -0.5380         0.000000   
    245. D(C   0,C   5,C   4,H   8)    179.3907         0.000000   
    246. D(H   9,C   5,C   0,C   1)   -179.3037         0.000000   
    247. D(C   4,C   5,C   0,H   6)   -179.0665         0.000000   
    248. D(C   4,C   5,C   0,C   1)      1.1891         0.000000   
    249. D(H   9,C   5,C   0,H   6)      0.4408         0.000000   
    250. D(B  19,B  10,C   2,C   1)     -8.7447         0.000000   
    251. D(B  19,B  10,C   2,C   3)    168.9052         0.000000   
    252. D(C  12,B  10,C   2,C   3)    102.2920         0.000000   
    253. D(H  11,B  10,C   2,C   3)   -141.4556         0.000000   
    254. D(H  11,B  10,C   2,C   1)     40.8946         0.000000   
    255. D(C  12,B  10,C   2,C   1)    -75.3579         0.000000   
    256. D(B  19,H  11,B  10,C   2)   -118.8767         0.000000   
    257. D(B  19,H  11,B  10,C  12)      2.7499         0.000000   
    258. D(B  19,H  11,B  10,H  42)    113.8626         0.000000   
    259. D(B  19,C  12,B  10,H  42)   -108.8163         0.000000   
    260. D(B  19,C  12,B  10,H  11)     -2.3681         0.000000   
    261. D(B  19,C  12,B  10,C   2)    114.7128         0.000000   
    262. D(C  13,C  12,B  10,H  42)    148.0033         0.000000   
    263. D(C  13,C  12,B  10,B  19)   -103.1804         0.000000   
    264. D(C  13,C  12,B  10,H  11)   -105.5485         0.000000   
    265. D(C  13,C  12,B  10,C   2)     11.5324         0.000000   
    266. D(H  15,C  13,C  12,B  10)     31.0292         0.000000   
    267. D(C  14,C  13,C  12,S  41)     -0.7232         0.000000   
    268. D(C  14,C  13,C  12,B  19)    133.2277         0.000000   
    269. D(H  15,C  13,C  12,B  19)    -45.8638         0.000000   
    270. D(C  14,C  13,C  12,B  10)   -149.8793         0.000000   
    271. D(H  17,C  14,C  13,H  15)     -0.4775         0.000000   
    272. D(H  17,C  14,C  13,C  12)   -179.5383         0.000000   
    273. D(C  16,C  14,C  13,H  15)    179.5944         0.000000   
    274. D(C  16,C  14,C  13,C  12)      0.5336         0.000000   
    275. D(S  41,C  16,C  14,H  17)    179.9942         0.000000   
    276. D(S  41,C  16,C  14,C  13)     -0.0771         0.000000   
    277. D(H  18,C  16,C  14,H  17)     -0.5119         0.000000   
    278. D(H  18,C  16,C  14,C  13)    179.4167         0.000000   
    279. D(C  12,B  19,H  11,B  10)     -2.5840         0.000000   
    280. D(O  20,B  19,B  10,H  11)     81.2675         0.000000   
    281. D(O  20,B  19,B  10,C   2)    164.5118         0.000000   
    282. D(C  12,B  19,B  10,H  42)     95.5170         0.000000   
    283. D(C  12,B  19,B  10,H  11)    176.8907         0.000000   
    284. D(C  12,B  19,B  10,C   2)    -99.8650         0.000000   
    285. D(H  11,B  19,B  10,H  42)    -81.3737         0.000000   
    286. D(H  11,B  19,B  10,C  12)   -176.8907         0.000000   
    287. D(O  20,B  19,H  11,B  10)   -119.9266         0.000000   
    288. D(H  11,B  19,B  10,C   2)     83.2444         0.000000   
    289. D(O  20,B  19,C  12,B  10)    116.5407         0.000000   
    290. D(H  11,B  19,C  12,S  41)   -108.5341         0.000000   
    291. D(H  11,B  19,C  12,C  13)    122.0149         0.000000   
    292. D(H  11,B  19,C  12,B  10)      2.1399         0.000000   
    293. D(B  10,B  19,C  12,S  41)   -110.6740         0.000000   
    294. D(B  10,B  19,C  12,C  13)    119.8750         0.000000   
    295. D(O  20,B  19,C  12,C  13)   -123.5843         0.000000   
    296. D(O  21,B  19,H  11,B  10)    119.4265         0.000000   
    297. D(C  22,O  20,B  19,O  21)      9.3500         0.000000   
    298. D(C  22,O  20,B  19,C  12)    143.7227         0.000000   
    299. D(C  22,O  20,B  19,H  11)   -108.4773         0.000000   
    300. D(C  22,O  20,B  19,B  10)   -153.8252         0.000000   
    301. D(C  23,O  21,B  19,O  20)     14.1729         0.000000   
    302. D(C  23,O  21,B  19,C  12)   -117.8267         0.000000   
    303. D(C  23,O  21,B  19,H  11)    133.0727         0.000000   
    304. D(C  23,O  21,B  19,B  10)    177.6611         0.000000   
    305. D(C  28,C  22,O  20,B  19)   -148.1688         0.000000   
    306. D(C  24,C  22,O  20,B  19)     92.2186         0.000000   
    307. D(C  23,C  22,O  20,B  19)    -26.6333         0.000000   
    308. D(C  32,C  23,C  22,C  24)    163.8380         0.000000   
    309. D(C  32,C  23,C  22,O  20)    -80.8411         0.000000   
    310. D(O  21,C  23,C  22,C  28)    151.5011         0.000000   
    311. D(O  21,C  23,C  22,C  24)    -80.8311         0.000000   
    312. D(O  21,C  23,C  22,O  20)     34.4898         0.000000   
    313. D(C  32,C  23,O  21,B  19)     89.4306         0.000000   
    314. D(C  22,C  23,O  21,B  19)    -29.3581         0.000000   
    315. D(C  32,C  23,C  22,C  28)     36.1702         0.000000   
    316. D(C  36,C  23,O  21,B  19)   -150.9852         0.000000   
    317. D(H  26,C  24,C  22,C  28)     56.4878         0.000000   
    318. D(H  26,C  24,C  22,C  23)    -73.4033         0.000000   
    319. D(H  26,C  24,C  22,O  20)    174.7416         0.000000   
    320. D(H  25,C  24,C  22,C  28)    -63.1779         0.000000   
    321. D(H  25,C  24,C  22,C  23)    166.9309         0.000000   
    322. D(H  25,C  24,C  22,O  20)     55.0759         0.000000   
    323. D(H  30,C  28,C  22,C  24)    170.6015         0.000000   
    324. D(H  30,C  28,C  22,C  23)    -60.6446         0.000000   
    325. D(H  30,C  28,C  22,O  20)     52.7234         0.000000   
    326. D(H  29,C  28,C  22,C  24)     51.2371         0.000000   
    327. D(H  29,C  28,C  22,C  23)    179.9910         0.000000   
    328. D(H  29,C  28,C  22,O  20)    -66.6409         0.000000   
    329. D(H  34,C  32,C  23,C  36)     56.4959         0.000000   
    330. D(H  34,C  32,C  23,C  22)    -73.5879         0.000000   
    331. D(H  34,C  32,C  23,O  21)    174.7489         0.000000   
    332. D(H  33,C  32,C  23,C  36)    -63.0755         0.000000   
    333. D(H  33,C  32,C  23,C  22)    166.8408         0.000000   
    334. D(H  33,C  32,C  23,O  21)     55.1776         0.000000   
    335. D(H  38,C  36,C  23,C  32)     51.2507         0.000000   
    336. D(H  38,C  36,C  23,C  22)   -179.9057         0.000000   
    337. D(H  38,C  36,C  23,O  21)    -66.7116         0.000000   
    338. D(H  37,C  36,C  23,C  32)    -68.0654         0.000000   
    339. D(H  37,C  36,C  23,C  22)     60.7783         0.000000   
    340. D(H  37,C  36,C  23,O  21)    173.9724         0.000000   
    341. D(C  44,N  40,C   3,C   4)    -80.8315         0.000000   
    342. D(C  44,N  40,C   3,C   2)     99.6527         0.000000   
    343. D(C  43,N  40,C   3,C   4)     71.8373         0.000000   
    344. D(C  43,N  40,C   3,C   2)   -107.6785         0.000000   
    345. D(C  12,S  41,C  16,H  18)   -179.8177         0.000000   
    346. D(C  12,S  41,C  16,C  14)     -0.2860         0.000000   
    347. D(C  16,S  41,C  12,B  19)   -131.1519         0.000000   
    348. D(C  16,S  41,C  12,C  13)      0.5652         0.000000   
    349. D(C  16,S  41,C  12,B  10)    152.2297         0.000000   
    350. D(C  46,C  43,N  40,C   3)    140.0852         0.000000   
    351. D(C  45,C  43,N  40,C  44)     55.5286         0.000000   
    352. D(C  45,C  43,N  40,C   3)    -97.1935         0.000000   
    353. D(C  47,C  43,N  40,C   3)     23.9039         0.000000   
    354. D(C  46,C  43,N  40,C  44)    -67.1927         0.000000   
    355. D(C  53,C  44,N  40,C   3)   -108.9747         0.000000   
    356. D(C  52,C  44,N  40,C  43)   -142.7547         0.000000   
    357. D(C  52,C  44,N  40,C   3)      9.9021         0.000000   
    358. D(C  51,C  44,N  40,C  43)    -22.9817         0.000000   
    359. D(C  51,C  44,N  40,C   3)    129.6751         0.000000   
    360. D(H  49,C  45,C  43,C  47)     89.2522         0.000000   
    361. D(H  49,C  45,C  43,C  46)    -25.8296         0.000000   
    362. D(H  49,C  45,C  43,N  40)   -148.2898         0.000000   
    363. D(C  48,C  45,C  43,C  47)   -148.3382         0.000000   
    364. D(C  48,C  45,C  43,C  46)     96.5800         0.000000   
    365. D(C  48,C  45,C  43,N  40)    -25.8802         0.000000   
    366. D(H  65,C  46,C  43,C  47)     65.3125         0.000000   
    367. D(H  65,C  46,C  43,C  45)   -177.8021         0.000000   
    368. D(H  65,C  46,C  43,N  40)    -54.1321         0.000000   
    369. D(H  64,C  46,C  43,C  47)   -173.7157         0.000000   
    370. D(H  64,C  46,C  43,C  45)    -56.8302         0.000000   
    371. D(H  64,C  46,C  43,N  40)     66.8397         0.000000   
    372. D(H  68,C  47,C  43,C  46)     60.1379         0.000000   
    373. D(H  68,C  47,C  43,C  45)    -57.9762         0.000000   
    374. D(H  68,C  47,C  43,N  40)    178.9176         0.000000   
    375. D(H  67,C  47,C  43,C  46)    179.6408         0.000000   
    376. D(H  67,C  47,C  43,C  45)     61.5267         0.000000   
    377. D(H  67,C  47,C  43,N  40)    -61.5795         0.000000   
    378. D(H  56,C  48,C  45,H  50)     84.8163         0.000000   
    379. D(H  56,C  48,C  45,H  49)    -31.2142         0.000000   
    380. D(H  56,C  48,C  45,C  43)   -152.8683         0.000000   
    381. D(C  51,C  48,C  45,H  50)   -152.0501         0.000000   
    382. D(C  51,C  48,C  45,H  49)     91.9193         0.000000   
    383. D(C  51,C  48,C  45,C  43)    -29.7348         0.000000   
    384. D(H  54,C  51,C  48,H  57)     62.5910         0.000000   
    385. D(H  54,C  51,C  48,H  56)    -53.2213         0.000000   
    386. D(H  54,C  51,C  48,C  45)   -176.2391         0.000000   
    387. D(C  44,C  51,C  48,H  57)    -58.1375         0.000000   
    388. D(C  44,C  51,C  48,H  56)   -173.9497         0.000000   
    389. D(C  44,C  51,C  48,C  45)     63.0325         0.000000   
    390. D(H  54,C  51,C  44,C  53)     79.7052         0.000000   
    391. D(H  54,C  51,C  44,C  52)    -35.7311         0.000000   
    392. D(H  54,C  51,C  44,N  40)   -157.8932         0.000000   
    393. D(C  48,C  51,C  44,C  53)   -158.2314         0.000000   
    394. D(C  48,C  51,C  44,C  52)     86.3322         0.000000   
    395. D(C  48,C  51,C  44,N  40)    -35.8298         0.000000   
    396. D(H  59,C  52,C  44,C  53)   -172.5485         0.000000   
    397. D(H  59,C  52,C  44,C  51)    -55.4846         0.000000   
    398. D(H  59,C  52,C  44,N  40)     66.0657         0.000000   
    399. D(H  58,C  52,C  44,C  53)    -52.9719         0.000000   
    400. D(H  58,C  52,C  44,C  51)     64.0920         0.000000   
    401. D(H  58,C  52,C  44,N  40)   -174.3578         0.000000   
    402. D(H  62,C  53,C  44,C  52)    -54.3593         0.000000   
    403. D(H  62,C  53,C  44,C  51)   -170.3654         0.000000   
    404. D(H  62,C  53,C  44,N  40)     67.4360         0.000000   
    405. D(H  61,C  53,C  44,C  52)     65.2204         0.000000   
    406. D(H  61,C  53,C  44,C  51)    -50.7856         0.000000   
    407. D(H  61,C  53,C  44,N  40)   -172.9842         0.000000   
    -----------------------------------------------------------------

Number of atoms                         .... 70
Number of degrees of freedom            .... 407


         *************************************************************
         *                GEOMETRY OPTIMIZATION CYCLE   1            *
         *************************************************************
---------------------------------
CARTESIAN COORDINATES (ANGSTROEM)
---------------------------------
  C     -1.906346   -2.209901    0.819842
  C     -0.591337   -1.763624    0.862024
  C     -0.258556   -0.401953    0.751656
  C     -1.306514    0.519516    0.554641
  C     -2.630326    0.057596    0.527778
  C     -2.937466   -1.288947    0.663605
  H     -2.124641   -3.270364    0.912636
  H      0.205360   -2.491288    0.999559
  H     -3.430162    0.781385    0.395411
  H     -3.973261   -1.616545    0.639502
  B      1.256566    0.077029    0.902098
  H      1.981988   -0.776856    0.284281
  C      1.816815    0.080151    2.494474
  C      1.164850   -0.496044    3.580129
  C      1.403504    0.145206    4.810519
  H      0.542659   -1.375973    3.461110
  C      2.237019    1.229109    4.660336
  H      0.985718   -0.169346    5.758715
  H      2.576524    1.903211    5.436801
  B      2.628651   -1.075652    1.463918
  O      3.991741   -0.797616    1.314155
  O      2.405803   -2.437910    1.721142
  C      4.663485   -2.066990    1.260969
  C      3.689123   -2.987693    2.068585
  C      4.776496   -2.474143   -0.209529
  H      5.273456   -1.669801   -0.757848
  H      5.361051   -3.390529   -0.333678
  H      3.788595   -2.628656   -0.653510
  C      6.045666   -1.904699    1.877029
  H      6.654889   -1.249334    1.249004
  H      5.984137   -1.457221    2.870639
  H      6.554052   -2.871567    1.953827
  C      3.865584   -2.848741    3.582762
  H      3.016634   -3.325361    4.080737
  H      4.783880   -3.331291    3.929912
  H      3.889477   -1.797411    3.885606
  C      3.707568   -4.454114    1.663814
  H      4.702471   -4.886749    1.812104
  H      2.998444   -5.016489    2.277324
  H      3.422701   -4.579031    0.617702
  N     -1.030195    1.917382    0.393011
  S      2.722507    1.461150    3.050098
  H      1.635208    1.090269    0.397162
  C     -1.375692    2.827371    1.509247
  C     -1.015746    2.478667   -0.990740
  C     -2.755477    3.517990    1.289071
  C     -0.267878    3.889281    1.679945
  C     -1.422243    2.063953    2.839982
  C     -3.139777    3.633944   -0.192172
  H     -2.726670    4.513985    1.748394
  H     -3.534273    2.960691    1.823369
  C     -1.904816    3.748389   -1.075296
  C     -1.551612    1.466172   -2.019008
  C      0.418060    2.834959   -1.426102
  H     -2.192322    3.897427   -2.122218
  H     -1.332839    4.640158   -0.795591
  H     -3.804775    4.490142   -0.347622
  H     -3.712077    2.750089   -0.499934
  H     -1.425482    1.887075   -3.021286
  H     -2.612579    1.244256   -1.876141
  H     -1.005115    0.520659   -1.978600
  H      0.403282    3.359045   -2.389397
  H      1.022611    1.931523   -1.539907
  H      0.914215    3.477414   -0.695987
  H     -0.199963    4.580880    0.838833
  H      0.701307    3.395166    1.794641
  H     -0.461656    4.489061    2.575936
  H     -2.181687    1.279500    2.846215
  H     -1.660718    2.771649    3.640492
  H     -0.455895    1.606759    3.068706

----------------------------
CARTESIAN COORDINATES (A.U.)
----------------------------
  NO LB      ZA    FRAG     MASS         X           Y           Z
   0 C     6.0000    0    12.011   -3.602472   -4.176108    1.549277
   1 C     6.0000    0    12.011   -1.117465   -3.332766    1.628989
   2 C     6.0000    0    12.011   -0.488600   -0.759581    1.420424
   3 C     6.0000    0    12.011   -2.468954    0.981743    1.048120
   4 C     6.0000    0    12.011   -4.970596    0.108841    0.997356
   5 C     6.0000    0    12.011   -5.551006   -2.435757    1.254032
   6 H     1.0000    0     1.008   -4.014990   -6.180092    1.724632
   7 H     1.0000    0     1.008    0.388074   -4.707852    1.888893
   8 H     1.0000    0     1.008   -6.482067    1.476604    0.747219
   9 H     1.0000    0     1.008   -7.508375   -3.054827    1.208484
  10 B     5.0000    0    10.810    2.374566    0.145564    1.704718
  11 H     1.0000    0     1.008    3.745415   -1.468045    0.537213
  12 C     6.0000    0    12.011    3.433283    0.151463    4.713873
  13 C     6.0000    0    12.011    2.201247   -0.937387    6.765463
  14 C     6.0000    0    12.011    2.652238    0.274400    9.090563
  15 H     1.0000    0     1.008    1.025477   -2.600212    6.540550
  16 C     6.0000    0    12.011    4.227353    2.322679    8.806759
  17 H     1.0000    0     1.008    1.862737   -0.320018   10.882394
  18 H     1.0000    0     1.008    4.868925    3.596548   10.274065
  19 B     5.0000    0    10.810    4.967430   -2.032688    2.766404
  20 O     8.0000    0    15.999    7.543297   -1.507276    2.483393
  21 O     8.0000    0    15.999    4.546309   -4.606982    3.252487
  22 C     6.0000    0    12.011    8.812709   -3.906045    2.382886
  23 C     6.0000    0    12.011    6.971432   -5.645922    3.909059
  24 C     6.0000    0    12.011    9.026269   -4.675453   -0.395952
  25 H     1.0000    0     1.008    9.965388   -3.155467   -1.432125
  26 H     1.0000    0     1.008   10.130918   -6.407171   -0.630560
  27 H     1.0000    0     1.008    7.159407   -4.967440   -1.234955
  28 C     6.0000    0    12.011   11.424653   -3.599359    3.547071
  29 H     1.0000    0     1.008   12.575918   -2.360899    2.360276
  30 H     1.0000    0     1.008   11.308380   -2.753749    5.424722
  31 H     1.0000    0     1.008   12.385363   -5.426475    3.692198
  32 C     6.0000    0    12.011    7.304895   -5.383340    6.770439
  33 H     1.0000    0     1.008    5.700612   -6.284022    7.711475
  34 H     1.0000    0     1.008    9.040223   -6.295228    7.426457
  35 H     1.0000    0     1.008    7.350046   -3.396615    7.342731
  36 C     6.0000    0    12.011    7.006288   -8.417056    3.144153
  37 H     1.0000    0     1.008    8.886382   -9.234617    3.424380
  38 H     1.0000    0     1.008    5.666238   -9.479790    4.303519
  39 H     1.0000    0     1.008    6.467968   -8.653115    1.167288
  40 N     7.0000    0    14.007   -1.946786    3.623327    0.742683
  41 S    16.0000    0    32.060    5.144793    2.761173    5.763850
  42 H     1.0000    0     1.008    3.090095    2.060310    0.750527
  43 C     6.0000    0    12.011   -2.599681    5.342957    2.852063
  44 C     6.0000    0    12.011   -1.919482    4.684002   -1.872227
  45 C     6.0000    0    12.011   -5.207097    6.648038    2.435991
  46 C     6.0000    0    12.011   -0.506216    7.349676    3.174636
  47 C     6.0000    0    12.011   -2.687650    3.900306    5.366788
  48 C     6.0000    0    12.011   -5.933319    6.867159   -0.363152
  49 H     1.0000    0     1.008   -5.152660    8.530195    3.303986
  50 H     1.0000    0     1.008   -6.678808    5.594895    3.445668
  51 C     6.0000    0    12.011   -3.599581    7.083429   -2.032015
  52 C     6.0000    0    12.011   -2.932122    2.770664   -3.815372
  53 C     6.0000    0    12.011    0.790019    5.357296   -2.694942
  54 H     1.0000    0     1.008   -4.142888    7.365070   -4.010411
  55 H     1.0000    0     1.008   -2.518701    8.768628   -1.503449
  56 H     1.0000    0     1.008   -7.189983    8.485139   -0.656910
  57 H     1.0000    0     1.008   -7.014809    5.196915   -0.944738
  58 H     1.0000    0     1.008   -2.693771    3.566055   -5.709403
  59 H     1.0000    0     1.008   -4.937059    2.351303   -3.545393
  60 H     1.0000    0     1.008   -1.899392    0.983903   -3.739012
  61 H     1.0000    0     1.008    0.762093    6.347675   -4.515306
  62 H     1.0000    0     1.008    1.932455    3.650049   -2.910003
  63 H     1.0000    0     1.008    1.727616    6.571360   -1.315225
  64 H     1.0000    0     1.008   -0.377875    8.656609    1.585165
  65 H     1.0000    0     1.008    1.325278    6.415934    3.391380
  66 H     1.0000    0     1.008   -0.872403    8.483096    4.867814
  67 H     1.0000    0     1.008   -4.122791    2.417905    5.378567
  68 H     1.0000    0     1.008   -3.138302    5.237658    6.879533
  69 H     1.0000    0     1.008   -0.861517    3.036334    5.799014

--------------------------------
INTERNAL COORDINATES (ANGSTROEM)
--------------------------------
 C      0   0   0     0.000000000000     0.00000000     0.00000000
 C      1   0   0     1.389313194328     0.00000000     0.00000000
 C      2   1   0     1.406083995224   122.18848915     0.00000000
 C      3   2   1     1.409303373284   117.91609918   358.18976216
 C      4   3   2     1.402344436475   119.29222862     2.41462579
 C      5   4   3     1.387790331562   121.77927787   358.69549104
 H      1   2   3     1.086667017918   120.06774994   180.25320565
 H      2   1   3     1.087720958210   118.83057447   179.08998526
 H      5   4   3     1.086797665670   118.53571932   178.76599220
 H      6   5   4     1.086633648585   120.08669322   179.95210871
 B      3   2   1     1.596136343353   120.52212035   175.92263175
 H     11   3   2     1.279474312676   107.00221936    40.89456789
 C     11   3   2     1.688061022079   113.86040963   284.64209488
 C     13  11   3     1.391296452333   125.43632555    11.53240432
 C     14  13  11     1.407841200674   114.44954596   210.12070785
 H     14  13  11     1.084233465580   121.28908317    31.02917448
 C     15  14  13     1.375553671117   111.48215536     0.53364094
 H     15  14  13     1.082849831194   124.58042953   180.46174022
 H     17  15  14     1.082855044618   127.02953943   179.41674085
 B     12  11   3     1.378040469999    89.85185725   241.12334521
 O     20  12  11     1.399195240688   108.81073576   240.07343926
 O     20  12  11     1.404126873129   107.01975170   119.42652216
 C     21  20  12     1.437142687421   106.48724663   251.52270829
 C     22  20  12     1.438710605973   105.86749881   133.07273386
 C     23  21  20     1.530003078276   107.76664099    92.21861822
 H     25  23  21     1.092972561561   108.65761744    55.07590416
 H     25  23  21     1.094020485741   111.80425847   174.74164941
 H     25  23  21     1.094048345061   111.15659326   296.22339913
 C     23  21  20     1.521937123879   108.38060994   211.83121217
 H     29  23  21     1.093193188590   109.72435560   293.35908500
 H     29  23  21     1.091459211526   111.16280778    52.72343577
 H     29  23  21     1.095074420861   110.84583538   174.02440669
 C     24  22  20     1.530744305936   107.87981886    89.43055127
 H     33  24  22     1.093554675142   108.74689136    55.17757173
 H     33  24  22     1.093908208496   111.75525233   174.74889644
 H     33  24  22     1.094340044358   111.31314197   296.26898829
 C     24  22  20     1.521371200499   108.35456041   209.01481868
 H     37  24  22     1.094986276961   110.84366865   173.97242171
 H     37  24  22     1.093397003883   109.79230381   293.28844316
 H     37  24  22     1.091377011450   111.23422856    52.82159651
 N      4   3   2     1.434052230784   120.65214811   181.93405296
 S     17  15  14     1.697765602334   112.61411060   359.92288281
 H     11   3   2     1.193727534180   121.06036644   154.89867048
 C     41   4   3     1.481023620617   117.97139797   252.32150285
 C     41   4   3     1.493323961780   118.20849485    99.65269574
 C     44  41   4     1.558601527127   111.85778158   262.80645865
 C     44  41   4     1.544034492458   109.78694637   140.08516287
 C     44  41   4     1.534871225396   110.78849628    23.90389616
 C     46  44  41     1.534670207297   113.04842109   334.11984909
 H     46  44  41     1.097184351694   108.65409383   211.71022339
 H     46  44  41     1.096621966687   109.55365717    96.30374037
 C     49  46  44     1.522542061462   111.24798435   330.26524245
 C     45  41   4     1.539361417863   111.61592280     9.90210395
 C     45  41   4     1.540221966453   110.96976293   251.02527277
 H     52  49  46     1.095863905585   110.58211696   183.76090075
 H     52  49  46     1.095739259548   109.66478375   299.90408557
 H     49  46  44     1.095199551547   110.37192690   207.13171441
 H     49  46  44     1.097016134644   109.90977145    90.73771692
 H     53  45  41     1.094362509223   108.58329201   185.64222225
 H     53  45  41     1.093301726805   112.58361263    66.06566164
 H     53  45  41     1.092834210044   111.73354706   304.65183792
 H     54  45  41     1.096732319987   110.25925872   187.01578415
 H     54  45  41     1.092991352080   110.67857997    67.43601468
 H     54  45  41     1.091781170508   111.72444492   307.37459320
 H     47  44  41     1.091050420728   113.29012364    66.83974140
 H     47  44  41     1.093903272628   109.67072070   305.86792239
 H     47  44  41     1.095484291884   109.88004341   186.61426669
 H     48  44  41     1.091861048226   112.54392143   298.42048343
 H     48  44  41     1.094769479909   108.60514869   178.91762070
 H     48  44  41     1.093238070557   111.25927085    60.11164474

---------------------------
INTERNAL COORDINATES (A.U.)
---------------------------
 C      0   0   0     0.000000000000     0.00000000     0.00000000
 C      1   0   0     2.625421451523     0.00000000     0.00000000
 C      2   1   0     2.657113672264   122.18848915     0.00000000
 C      3   2   1     2.663197415118   117.91609918   358.18976216
 C      4   3   2     2.650046930366   119.29222862     2.41462579
 C      5   4   3     2.622543657957   121.77927787   358.69549104
 H      1   2   3     2.053503062629   120.06774994   180.25320565
 H      2   1   3     2.055494721144   118.83057447   179.08998526
 H      5   4   3     2.053749951101   118.53571932   178.76599220
 H      6   5   4     2.053440003730   120.08669322   179.95210871
 B      3   2   1     3.016260561335   120.52212035   175.92263175
 H     11   3   2     2.417856046345   107.00221936    40.89456789
 C     11   3   2     3.189973029076   113.86040963   284.64209488
 C     13  11   3     2.629169266006   125.43632555    11.53240432
 C     14  13  11     2.660434309325   114.44954596   210.12070785
 H     14  13  11     2.048904315178   121.28908317    31.02917448
 C     15  14  13     2.599419720921   111.48215536     0.53364094
 H     15  14  13     2.046289625119   124.58042953   180.46174022
 H     17  15  14     2.046299477063   127.02953943   179.41674085
 B     12  11   3     2.604119089758    89.85185725   241.12334521
 O     20  12  11     2.644095812787   108.81073576   240.07343926
 O     20  12  11     2.653415247494   107.01975170   119.42652216
 C     21  20  12     2.715806094594   106.48724663   251.52270829
 C     22  20  12     2.718769031256   105.86749881   133.07273386
 C     23  21  20     2.891286801998   107.76664099    92.21861822
 H     25  23  21     2.065418813240   108.65761744    55.07590416
 H     25  23  21     2.067399102951   111.80425847   174.74164941
 H     25  23  21     2.067451749435   111.15659326   296.22339913
 C     23  21  20     2.876044357180   108.38060994   211.83121217
 H     29  23  21     2.065835737903   109.72435560   293.35908500
 H     29  23  21     2.062558996130   111.16280778    52.72343577
 H     29  23  21     2.069390751690   110.84583538   174.02440669
 C     24  22  20     2.892687519277   107.87981886    89.43055127
 H     33  24  22     2.066518848488   108.74689136    55.17757173
 H     33  24  22     2.067186929707   111.75525233   174.74889644
 H     33  24  22     2.068002981219   111.31314197   296.26898829
 C     24  22  20     2.874974916978   108.35456041   209.01481868
 H     37  24  22     2.069224183859   110.84366865   173.97242171
 H     37  24  22     2.066220892989   109.79230381   293.28844316
 H     37  24  22     2.062403660498   111.23422856    52.82159651
 N      4   3   2     2.709965977921   120.65214811   181.93405296
 S     17  15  14     3.208312028003   112.61411060   359.92288281
 H     11   3   2     2.255818118122   121.06036644   154.89867048
 C     41   4   3     2.798729040835   117.97139797   252.32150285
 C     41   4   3     2.821973316987   118.20849485    99.65269574
 C     44  41   4     2.945330038181   111.85778158   262.80645865
 C     44  41   4     2.917802332074   109.78694637   140.08516287
 C     44  41   4     2.900486266835   110.78849628    23.90389616
 C     46  44  41     2.900106397679   113.04842109   334.11984909
 H     46  44  41     2.073377943126   108.65409383   211.71022339
 H     46  44  41     2.072315189481   109.55365717    96.30374037
 C     49  46  44     2.877187523540   111.24798435   330.26524245
 C     45  41   4     2.908971500886   111.61592280     9.90210395
 C     45  41   4     2.910597702046   110.96976293   251.02527277
 H     52  49  46     2.070882661605   110.58211696   183.76090075
 H     52  49  46     2.070647114732   109.66478375   299.90408557
 H     49  46  44     2.069627214417   110.37192690   207.13171441
 H     49  46  44     2.073060058970   109.90977145    90.73771692
 H     53  45  41     2.068045433662   108.58329201   185.64222225
 H     53  45  41     2.066040845404   112.58361263    66.06566164
 H     53  45  41     2.065157366763   111.73354706   304.65183792
 H     54  45  41     2.072523726996   110.25925872   187.01578415
 H     54  45  41     2.065454322176   110.67857997    67.43601468
 H     54  45  41     2.063167410431   111.72444492   307.37459320
 H     47  44  41     2.061786493475   113.29012364    66.83974140
 H     47  44  41     2.067177602267   109.67072070   305.86792239
 H     47  44  41     2.070165295674   109.88004341   186.61426669
 H     48  44  41     2.063318357444   112.54392143   298.42048343
 H     48  44  41     2.068814496804   108.60514869   178.91762070
 H     48  44  41     2.065920552530   111.25927085    60.11164474

---------------------
BASIS SET INFORMATION
---------------------
There are 6 groups of distinct atoms

 Group   1 Type C   : 10s4p1d contracted to 3s2p1d pattern {631/31/1}
 Group   2 Type H   : 4s1p contracted to 2s1p pattern {31/1}
 Group   3 Type B   : 10s4p1d contracted to 3s2p1d pattern {631/31/1}
 Group   4 Type O   : 10s4p1d contracted to 3s2p1d pattern {631/31/1}
 Group   5 Type N   : 10s4p1d contracted to 3s2p1d pattern {631/31/1}
 Group   6 Type S   : 16s10p1d contracted to 4s3p1d pattern {6631/631/1}

Atom   0C    basis set group =>   1
Atom   1C    basis set group =>   1
Atom   2C    basis set group =>   1
Atom   3C    basis set group =>   1
Atom   4C    basis set group =>   1
Atom   5C    basis set group =>   1
Atom   6H    basis set group =>   2
Atom   7H    basis set group =>   2
Atom   8H    basis set group =>   2
Atom   9H    basis set group =>   2
Atom  10B    basis set group =>   3
Atom  11H    basis set group =>   2
Atom  12C    basis set group =>   1
Atom  13C    basis set group =>   1
Atom  14C    basis set group =>   1
Atom  15H    basis set group =>   2
Atom  16C    basis set group =>   1
Atom  17H    basis set group =>   2
Atom  18H    basis set group =>   2
Atom  19B    basis set group =>   3
Atom  20O    basis set group =>   4
Atom  21O    basis set group =>   4
Atom  22C    basis set group =>   1
Atom  23C    basis set group =>   1
Atom  24C    basis set group =>   1
Atom  25H    basis set group =>   2
Atom  26H    basis set group =>   2
Atom  27H    basis set group =>   2
Atom  28C    basis set group =>   1
Atom  29H    basis set group =>   2
Atom  30H    basis set group =>   2
Atom  31H    basis set group =>   2
Atom  32C    basis set group =>   1
Atom  33H    basis set group =>   2
Atom  34H    basis set group =>   2
Atom  35H    basis set group =>   2
Atom  36C    basis set group =>   1
Atom  37H    basis set group =>   2
Atom  38H    basis set group =>   2
Atom  39H    basis set group =>   2
Atom  40N    basis set group =>   5
Atom  41S    basis set group =>   6
Atom  42H    basis set group =>   2
Atom  43C    basis set group =>   1
Atom  44C    basis set group =>   1
Atom  45C    basis set group =>   1
Atom  46C    basis set group =>   1
Atom  47C    basis set group =>   1
Atom  48C    basis set group =>   1
Atom  49H    basis set group =>   2
Atom  50H    basis set group =>   2
Atom  51C    basis set group =>   1
Atom  52C    basis set group =>   1
Atom  53C    basis set group =>   1
Atom  54H    basis set group =>   2
Atom  55H    basis set group =>   2
Atom  56H    basis set group =>   2
Atom  57H    basis set group =>   2
Atom  58H    basis set group =>   2
Atom  59H    basis set group =>   2
Atom  60H    basis set group =>   2
Atom  61H    basis set group =>   2
Atom  62H    basis set group =>   2
Atom  63H    basis set group =>   2
Atom  64H    basis set group =>   2
Atom  65H    basis set group =>   2
Atom  66H    basis set group =>   2
Atom  67H    basis set group =>   2
Atom  68H    basis set group =>   2
Atom  69H    basis set group =>   2
---------------------------------
AUXILIARY/J BASIS SET INFORMATION
---------------------------------
There are 6 groups of distinct atoms

 Group   1 Type C   : 12s5p4d2f1g contracted to 6s4p3d1f1g pattern {711111/2111/211/2/1}
 Group   2 Type H   : 5s2p1d contracted to 3s1p1d pattern {311/2/1}
 Group   3 Type B   : 12s5p4d2f1g contracted to 6s4p3d1f1g pattern {711111/2111/211/2/1}
 Group   4 Type O   : 12s5p4d2f1g contracted to 6s4p3d1f1g pattern {711111/2111/211/2/1}
 Group   5 Type N   : 12s5p4d2f1g contracted to 6s4p3d1f1g pattern {711111/2111/211/2/1}
 Group   6 Type S   : 14s5p5d2f1g contracted to 8s4p3d1f1g pattern {71111111/2111/311/2/1}

Atom   0C    basis set group =>   1
Atom   1C    basis set group =>   1
Atom   2C    basis set group =>   1
Atom   3C    basis set group =>   1
Atom   4C    basis set group =>   1
Atom   5C    basis set group =>   1
Atom   6H    basis set group =>   2
Atom   7H    basis set group =>   2
Atom   8H    basis set group =>   2
Atom   9H    basis set group =>   2
Atom  10B    basis set group =>   3
Atom  11H    basis set group =>   2
Atom  12C    basis set group =>   1
Atom  13C    basis set group =>   1
Atom  14C    basis set group =>   1
Atom  15H    basis set group =>   2
Atom  16C    basis set group =>   1
Atom  17H    basis set group =>   2
Atom  18H    basis set group =>   2
Atom  19B    basis set group =>   3
Atom  20O    basis set group =>   4
Atom  21O    basis set group =>   4
Atom  22C    basis set group =>   1
Atom  23C    basis set group =>   1
Atom  24C    basis set group =>   1
Atom  25H    basis set group =>   2
Atom  26H    basis set group =>   2
Atom  27H    basis set group =>   2
Atom  28C    basis set group =>   1
Atom  29H    basis set group =>   2
Atom  30H    basis set group =>   2
Atom  31H    basis set group =>   2
Atom  32C    basis set group =>   1
Atom  33H    basis set group =>   2
Atom  34H    basis set group =>   2
Atom  35H    basis set group =>   2
Atom  36C    basis set group =>   1
Atom  37H    basis set group =>   2
Atom  38H    basis set group =>   2
Atom  39H    basis set group =>   2
Atom  40N    basis set group =>   5
Atom  41S    basis set group =>   6
Atom  42H    basis set group =>   2
Atom  43C    basis set group =>   1
Atom  44C    basis set group =>   1
Atom  45C    basis set group =>   1
Atom  46C    basis set group =>   1
Atom  47C    basis set group =>   1
Atom  48C    basis set group =>   1
Atom  49H    basis set group =>   2
Atom  50H    basis set group =>   2
Atom  51C    basis set group =>   1
Atom  52C    basis set group =>   1
Atom  53C    basis set group =>   1
Atom  54H    basis set group =>   2
Atom  55H    basis set group =>   2
Atom  56H    basis set group =>   2
Atom  57H    basis set group =>   2
Atom  58H    basis set group =>   2
Atom  59H    basis set group =>   2
Atom  60H    basis set group =>   2
Atom  61H    basis set group =>   2
Atom  62H    basis set group =>   2
Atom  63H    basis set group =>   2
Atom  64H    basis set group =>   2
Atom  65H    basis set group =>   2
Atom  66H    basis set group =>   2
Atom  67H    basis set group =>   2
Atom  68H    basis set group =>   2
Atom  69H    basis set group =>   2


           ************************************************************
           *        Program running with 62 parallel MPI-processes    *
           *              working on a common directory               *
           ************************************************************
------------------------------------------------------------------------------
                             ORCA STARTUP CALCULATIONS
                           -- RI-GTO INTEGRALS CHOSEN --
------------------------------------------------------------------------------
------------------------------------------------------------------------------
                   ___                                                        
                  /   \      - P O W E R E D   B Y -                         
                 /     \                                                     
                 |  |  |   _    _      __       _____    __    __             
                 |  |  |  | |  | |    /  \     |  _  \  |  |  /  |          
                  \  \/   | |  | |   /    \    | | | |  |  | /  /          
                 / \  \   | |__| |  /  /\  \   | |_| |  |  |/  /          
                |  |  |   |  __  | /  /__\  \  |    /   |      \           
                |  |  |   | |  | | |   __   |  |    \   |  |\   \          
                \     /   | |  | | |  |  |  |  | |\  \  |  | \   \       
                 \___/    |_|  |_| |__|  |__|  |_| \__\ |__|  \__/        
                                                                              
                      - O R C A' S   B I G   F R I E N D -                    
                                      &                                       
                       - I N T E G R A L  F E E D E R -                       
                                                                              
 v1 FN, 2020, v2 2021, v3 2022-2024                                           
------------------------------------------------------------------------------


----------------------
SHARK INTEGRAL PACKAGE
----------------------

Number of atoms                             ...     70
Number of basis functions                   ...    633
Number of shells                            ...    305
Maximum angular momentum                    ...      2
Integral batch strategy                     ... SHARK/LIBINT Hybrid
RI-J (if used) integral strategy            ... SPLIT-RIJ (Revised 2003 algorithm where possible)
Printlevel                                  ...      1
Contraction scheme used                     ... SEGMENTED contraction
Prescreening option                         ... SCHWARTZ
   Thresh                                   ... 2.500e-11
   Tcut                                     ... 2.500e-12
   Tpresel                                  ... 2.500e-12 
Coulomb Range Separation                    ... NOT USED
Exchange Range Separation                   ... Long Range
   Mu parameter                             ... 2.500e-01
   Scaling (regular/separated)              ... 1.957e-01 8.043e-01
Robust (split-)RI terms used:
  metric    (central integrals)             ... YES
  density   (r.h.s.  integrals)             ... YES
  potential (l.h.s.  integrals)             ... YES
Multipole approximations                    ... NOT USED
Finite Nucleus Model                        ... NOT USED
CABS basis                                  ... NOT available
Auxiliary Coulomb fitting basis             ... AVAILABLE
   # of basis functions in Aux-J            ...   1950
   # of shells in Aux-J                     ...    662
   Maximum angular momentum in Aux-J        ...      4
Auxiliary J/K fitting basis                 ... NOT available
Auxiliary Correlation fitting basis         ... NOT available
Auxiliary 'external' fitting basis          ... NOT available

Checking pre-screening integrals            ... done (  0.0 sec) Dimension = 305
   => SHARK Basis and OBASIS are compatible. Storing Pre-screening
Shell pair information
Shell pair cut-off parameter TPreSel        ...   2.5e-12
Total number of shell pairs                 ...     46665
Shell pairs after pre-screening             ...     29102
Total number of primitive shell pairs       ...    226926
Primitive shell pairs kept                  ...     78476
          la=0 lb=0:   9416 shell pairs
          la=1 lb=0:  11072 shell pairs
          la=1 lb=1:   3345 shell pairs
          la=2 lb=0:   3144 shell pairs
          la=2 lb=1:   1856 shell pairs
          la=2 lb=2:    269 shell pairs

Checking whether 4 symmetric matrices of dimension 633 fit in memory
:Max Core in MB      =   4129.00
 MB in use           =     40.60
 MB left             =   4088.40
 MB needed           =      6.12
 Data fit in memory  = YES
Calculating RI/J V-Matrix + Cholesky decomp.... done (  0.3 sec)
Calculating Nuclear repulsion               ... done (  0.0 sec) ENN=   3591.208262572193 Eh

Diagonalization of the overlap matrix:
Smallest eigenvalue                        ... 3.980e-04
Time for diagonalization                   ...    0.070 sec
Threshold for overlap eigenvalues          ... 1.000e-07
Number of eigenvalues below threshold      ... 0
Time for construction of square roots      ...    0.050 sec
Total time needed                          ...    0.126 sec

-------------------
DFT GRID GENERATION
-------------------

General Integration Accuracy     IntAcc      ... 4.388
Radial Grid Type                 RadialGrid  ... OptM3 with GC (2021)
Angular Grid (max. ang.)         AngularGrid ... 4 (Lebedev-302)
Angular grid pruning method      GridPruning ... 4 (adaptive)
Weight generation scheme         WeightScheme... mBecke (2022)
Basis function cutoff            BFCut       ... 1.0000e-11
Integration weight cutoff        WCut        ... 1.0000e-14
Partially contracted basis set               ... off
Rotationally invariant grid construction     ... off
Angular grids for H and He will be reduced by one unit

Total number of grid points                  ...   305693
Total number of batches                      ...     4816
Average number of points per batch           ...       63
Average number of grid points per atom       ...     4367

--------------------
COSX GRID GENERATION
--------------------

GRIDX 1
-------
General Integration Accuracy     IntAcc      ... 3.816
Radial Grid Type                 RadialGrid  ... OptM3 with GC (2021)
Angular Grid (max. ang.)         AngularGrid ... 1 (Lebedev-50)
Angular grid pruning method      GridPruning ... 4 (adaptive)
[...]
Cut-Off Frequency   ...     1.00 cm^-1

Throughout the following assumptions are being made:
  (1) The electronic state is orbitally nondegenerate
  (2) There are no thermally accessible electronically excited states
  (3) Hindered rotations indicated by low frequency modes are not
      treated as such but are treated as vibrations and this may
      cause some error
  (4) All equations used are the standard statistical mechanics
      equations for an ideal gas
  (5) All vibrations are strictly harmonic

freq.      18.37  E(vib)   ...       0.57 
freq.      35.70  E(vib)   ...       0.54 
freq.      40.70  E(vib)   ...       0.54 
freq.      49.89  E(vib)   ...       0.52 
freq.      58.51  E(vib)   ...       0.51 
freq.      60.32  E(vib)   ...       0.51 
freq.      74.31  E(vib)   ...       0.49 
freq.      89.89  E(vib)   ...       0.47 
freq.      93.86  E(vib)   ...       0.47 
freq.     102.01  E(vib)   ...       0.46 
freq.     120.35  E(vib)   ...       0.44 
freq.     126.01  E(vib)   ...       0.43 
freq.     156.49  E(vib)   ...       0.40 
freq.     169.12  E(vib)   ...       0.38 
freq.     184.73  E(vib)   ...       0.37 
freq.     204.34  E(vib)   ...       0.35 
freq.     216.69  E(vib)   ...       0.34 
freq.     220.57  E(vib)   ...       0.33 
freq.     227.74  E(vib)   ...       0.33 
freq.     234.47  E(vib)   ...       0.32 
freq.     248.55  E(vib)   ...       0.31 
freq.     256.50  E(vib)   ...       0.30 
freq.     266.59  E(vib)   ...       0.29 
freq.     275.49  E(vib)   ...       0.28 
freq.     290.54  E(vib)   ...       0.27 
freq.     302.76  E(vib)   ...       0.26 
freq.     307.14  E(vib)   ...       0.26 
freq.     315.04  E(vib)   ...       0.25 
freq.     316.77  E(vib)   ...       0.25 
freq.     322.13  E(vib)   ...       0.25 
freq.     326.16  E(vib)   ...       0.24 
freq.     330.99  E(vib)   ...       0.24 
freq.     349.05  E(vib)   ...       0.23 
freq.     359.21  E(vib)   ...       0.22 
freq.     359.64  E(vib)   ...       0.22 
freq.     367.52  E(vib)   ...       0.21 
freq.     372.32  E(vib)   ...       0.21 
freq.     391.11  E(vib)   ...       0.20 
freq.     405.35  E(vib)   ...       0.19 
freq.     418.72  E(vib)   ...       0.18 
freq.     421.23  E(vib)   ...       0.18 
freq.     435.47  E(vib)   ...       0.17 
freq.     452.48  E(vib)   ...       0.16 
freq.     476.76  E(vib)   ...       0.15 
freq.     482.05  E(vib)   ...       0.15 
freq.     495.34  E(vib)   ...       0.14 
freq.     498.15  E(vib)   ...       0.14 
freq.     504.85  E(vib)   ...       0.14 
freq.     530.69  E(vib)   ...       0.13 
freq.     551.60  E(vib)   ...       0.12 
freq.     561.07  E(vib)   ...       0.11 
freq.     578.68  E(vib)   ...       0.11 
freq.     586.10  E(vib)   ...       0.11 
freq.     590.85  E(vib)   ...       0.10 
freq.     599.80  E(vib)   ...       0.10 
freq.     608.89  E(vib)   ...       0.10 
freq.     616.71  E(vib)   ...       0.09 
freq.     623.25  E(vib)   ...       0.09 
freq.     678.46  E(vib)   ...       0.08 
freq.     684.54  E(vib)   ...       0.07 
freq.     693.68  E(vib)   ...       0.07 
freq.     765.02  E(vib)   ...       0.06 
freq.     768.37  E(vib)   ...       0.06 
freq.     772.85  E(vib)   ...       0.05 
freq.     781.32  E(vib)   ...       0.05 
freq.     789.27  E(vib)   ...       0.05 
freq.     791.47  E(vib)   ...       0.05 
freq.     795.64  E(vib)   ...       0.05 
freq.     829.50  E(vib)   ...       0.04 
freq.     841.88  E(vib)   ...       0.04 
freq.     851.00  E(vib)   ...       0.04 
freq.     888.77  E(vib)   ...       0.04 
freq.     900.06  E(vib)   ...       0.03 
freq.     905.06  E(vib)   ...       0.03 
freq.     907.27  E(vib)   ...       0.03 
freq.     909.51  E(vib)   ...       0.03 
freq.     918.86  E(vib)   ...       0.03 
freq.     930.50  E(vib)   ...       0.03 
freq.     942.95  E(vib)   ...       0.03 
freq.     948.64  E(vib)   ...       0.03 
freq.     949.39  E(vib)   ...       0.03 
freq.     953.43  E(vib)   ...       0.03 
freq.     965.79  E(vib)   ...       0.03 
freq.     968.24  E(vib)   ...       0.03 
freq.     980.30  E(vib)   ...       0.02 
freq.     986.02  E(vib)   ...       0.02 
freq.     994.87  E(vib)   ...       0.02 
freq.     996.03  E(vib)   ...       0.02 
freq.     997.60  E(vib)   ...       0.02 
freq.    1002.41  E(vib)   ...       0.02 
freq.    1012.32  E(vib)   ...       0.02 
freq.    1017.62  E(vib)   ...       0.02 
freq.    1023.68  E(vib)   ...       0.02 
freq.    1029.52  E(vib)   ...       0.02 
freq.    1032.10  E(vib)   ...       0.02 
freq.    1056.80  E(vib)   ...       0.02 
freq.    1064.93  E(vib)   ...       0.02 
freq.    1075.29  E(vib)   ...       0.02 
freq.    1095.12  E(vib)   ...       0.02 
freq.    1101.53  E(vib)   ...       0.02 
freq.    1113.79  E(vib)   ...       0.01 
freq.    1117.51  E(vib)   ...       0.01 
freq.    1125.53  E(vib)   ...       0.01 
freq.    1131.62  E(vib)   ...       0.01 
freq.    1142.69  E(vib)   ...       0.01 
freq.    1149.02  E(vib)   ...       0.01 
freq.    1166.71  E(vib)   ...       0.01 
freq.    1192.66  E(vib)   ...       0.01 
freq.    1195.30  E(vib)   ...       0.01 
freq.    1206.80  E(vib)   ...       0.01 
freq.    1219.24  E(vib)   ...       0.01 
freq.    1224.42  E(vib)   ...       0.01 
freq.    1230.99  E(vib)   ...       0.01 
freq.    1236.29  E(vib)   ...       0.01 
freq.    1239.74  E(vib)   ...       0.01 
freq.    1257.81  E(vib)   ...       0.01 
freq.    1266.26  E(vib)   ...       0.01 
freq.    1270.72  E(vib)   ...       0.01 
freq.    1275.48  E(vib)   ...       0.01 
freq.    1288.94  E(vib)   ...       0.01 
freq.    1294.72  E(vib)   ...       0.01 
freq.    1304.29  E(vib)   ...       0.01 
freq.    1307.68  E(vib)   ...       0.01 
freq.    1316.14  E(vib)   ...       0.01 
freq.    1322.77  E(vib)   ...       0.01 
freq.    1332.36  E(vib)   ...       0.01 
freq.    1359.62  E(vib)   ...       0.01 
freq.    1375.21  E(vib)   ...       0.01 
freq.    1388.14  E(vib)   ...       0.00 
freq.    1390.30  E(vib)   ...       0.00 
freq.    1405.10  E(vib)   ...       0.00 
freq.    1415.84  E(vib)   ...       0.00 
freq.    1418.25  E(vib)   ...       0.00 
freq.    1420.45  E(vib)   ...       0.00 
freq.    1423.12  E(vib)   ...       0.00 
freq.    1431.13  E(vib)   ...       0.00 
freq.    1434.09  E(vib)   ...       0.00 
freq.    1437.39  E(vib)   ...       0.00 
freq.    1440.12  E(vib)   ...       0.00 
freq.    1473.99  E(vib)   ...       0.00 
freq.    1488.11  E(vib)   ...       0.00 
freq.    1488.63  E(vib)   ...       0.00 
freq.    1492.17  E(vib)   ...       0.00 
freq.    1494.77  E(vib)   ...       0.00 
freq.    1495.13  E(vib)   ...       0.00 
freq.    1498.57  E(vib)   ...       0.00 
freq.    1499.37  E(vib)   ...       0.00 
freq.    1501.74  E(vib)   ...       0.00 
freq.    1502.73  E(vib)   ...       0.00 
freq.    1507.06  E(vib)   ...       0.00 
freq.    1512.68  E(vib)   ...       0.00 
freq.    1516.66  E(vib)   ...       0.00 
freq.    1517.68  E(vib)   ...       0.00 
freq.    1521.54  E(vib)   ...       0.00 
freq.    1522.27  E(vib)   ...       0.00 
freq.    1522.87  E(vib)   ...       0.00 
freq.    1524.42  E(vib)   ...       0.00 
freq.    1531.96  E(vib)   ...       0.00 
freq.    1534.56  E(vib)   ...       0.00 
freq.    1537.51  E(vib)   ...       0.00 
freq.    1548.28  E(vib)   ...       0.00 
freq.    1570.29  E(vib)   ...       0.00 
freq.    1654.61  E(vib)   ...       0.00 
freq.    1686.14  E(vib)   ...       0.00 
freq.    1796.90  E(vib)   ...       0.00 
freq.    2127.42  E(vib)   ...       0.00 
freq.    2679.86  E(vib)   ...       0.00 
freq.    3062.58  E(vib)   ...       0.00 
freq.    3070.51  E(vib)   ...       0.00 
freq.    3073.86  E(vib)   ...       0.00 
freq.    3075.20  E(vib)   ...       0.00 
freq.    3077.04  E(vib)   ...       0.00 
freq.    3077.96  E(vib)   ...       0.00 
freq.    3079.49  E(vib)   ...       0.00 
freq.    3081.85  E(vib)   ...       0.00 
freq.    3084.09  E(vib)   ...       0.00 
freq.    3084.30  E(vib)   ...       0.00 
freq.    3086.56  E(vib)   ...       0.00 
freq.    3106.06  E(vib)   ...       0.00 
freq.    3120.24  E(vib)   ...       0.00 
freq.    3128.08  E(vib)   ...       0.00 
freq.    3154.31  E(vib)   ...       0.00 
freq.    3156.47  E(vib)   ...       0.00 
freq.    3161.42  E(vib)   ...       0.00 
freq.    3162.36  E(vib)   ...       0.00 
freq.    3162.96  E(vib)   ...       0.00 
freq.    3165.75  E(vib)   ...       0.00 
freq.    3166.04  E(vib)   ...       0.00 
freq.    3166.15  E(vib)   ...       0.00 
freq.    3169.59  E(vib)   ...       0.00 
freq.    3173.67  E(vib)   ...       0.00 
freq.    3174.74  E(vib)   ...       0.00 
freq.    3183.90  E(vib)   ...       0.00 
freq.    3187.34  E(vib)   ...       0.00 
freq.    3188.12  E(vib)   ...       0.00 
freq.    3188.69  E(vib)   ...       0.00 
freq.    3192.30  E(vib)   ...       0.00 
freq.    3199.12  E(vib)   ...       0.00 
freq.    3208.91  E(vib)   ...       0.00 
freq.    3221.48  E(vib)   ...       0.00 
freq.    3232.72  E(vib)   ...       0.00 
freq.    3257.19  E(vib)   ...       0.00 
freq.    3269.65  E(vib)   ...       0.00 
freq.    3286.18  E(vib)   ...       0.00 

------------
INNER ENERGY
------------

The inner energy is: U= E(el) + E(ZPE) + E(vib) + E(rot) + E(trans)
    E(el)   - is the total energy from the electronic structure calculation
              = E(kin-el) + E(nuc-el) + E(el-el) + E(nuc-nuc)
    E(ZPE)  - the the zero temperature vibrational energy from the frequency calculation
    E(vib)  - the the finite temperature correction to E(ZPE) due to population
              of excited vibrational states
    E(rot)  - is the rotational thermal energy
    E(trans)- is the translational thermal energy

Summary of contributions to the inner energy U:
Electronic energy                ...  -1629.04750938 Eh
Zero point energy                ...      0.61266824 Eh     384.45 kcal/mol
Thermal vibrational correction   ...      0.02831986 Eh      17.77 kcal/mol
Thermal rotational correction    ...      0.00141627 Eh       0.89 kcal/mol
Thermal translational correction ...      0.00141627 Eh       0.89 kcal/mol
-----------------------------------------------------------------------
Total thermal energy                  -1628.40368874 Eh


Summary of corrections to the electronic energy:
(perhaps to be used in another calculation)
Total thermal correction                  0.03115240 Eh      19.55 kcal/mol
Non-thermal (ZPE) correction              0.61266824 Eh     384.45 kcal/mol
-----------------------------------------------------------------------
Total correction                          0.64382064 Eh     404.00 kcal/mol


--------
ENTHALPY
--------

The enthalpy is H = U + kB*T
                kB is Boltzmann's constant
Total thermal energy              ...  -1628.40368874 Eh 
Thermal Enthalpy correction       ...      0.00094421 Eh       0.59 kcal/mol
-----------------------------------------------------------------------
Total Enthalpy                    ...  -1628.40274453 Eh


Note: Only C1 symmetry has been detected, increase convergence thresholds 
      if your molecule has a higher symmetry. Symmetry factor of 1.0 is   
      used for the rotational entropy correction. 
 

Note: Rotational entropy computed according to Herzberg 
Infrared and Raman Spectra, Chapter V,1, Van Nostrand Reinhold, 1945 
Point Group:  C1, Symmetry Number:   1  
Rotational constants in cm-1:     0.008309     0.003156     0.002963 

Vibrational entropy computed according to the QRRHO of S. Grimme
Chem.Eur.J. 2012 18 9955 using a reference frequency of 100.0 cm-1


-------
ENTROPY
-------

The entropy contributions are T*S = T*(S(el)+S(vib)+S(rot)+S(trans))
     S(el)   - electronic entropy
     S(vib)  - vibrational entropy
     S(rot)  - rotational entropy
     S(trans)- translational entropy
The entropies will be listed as multiplied by the temperature to get
units of energy

Electronic entropy                ...      0.00000000 Eh      0.00 kcal/mol
Vibrational entropy               ...      0.04884883 Eh     30.65 kcal/mol
Rotational entropy                ...      0.01723919 Eh     10.82 kcal/mol
Translational entropy             ...      0.02096725 Eh     13.16 kcal/mol
-----------------------------------------------------------------------
Final entropy term                ...      0.08705527 Eh     54.63 kcal/mol

In case the symmetry of your molecule has not been determined correctly
or in case you have a reason to use a different symmetry number we print 
out the resulting rotational entropy values for sn=1,12:

 non-linear molecules -----------------------------------
|  sn= 1 | S(rot)=       0.01723919 Eh     10.82 kcal/mol|
|  sn= 2 | S(rot)=       0.01658473 Eh     10.41 kcal/mol|
|  sn= 3 | S(rot)=       0.01620190 Eh     10.17 kcal/mol|
|  sn= 4 | S(rot)=       0.01593027 Eh     10.00 kcal/mol|
|  sn= 5 | S(rot)=       0.01571959 Eh      9.86 kcal/mol|
|  sn= 6 | S(rot)=       0.01554744 Eh      9.76 kcal/mol|
|  sn= 7 | S(rot)=       0.01540189 Eh      9.66 kcal/mol|
|  sn= 8 | S(rot)=       0.01527582 Eh      9.59 kcal/mol|
|  sn= 9 | S(rot)=       0.01516461 Eh      9.52 kcal/mol|
|  sn=10 | S(rot)=       0.01506513 Eh      9.45 kcal/mol|
|  sn=11 | S(rot)=       0.01497514 Eh      9.40 kcal/mol|
|  sn=12 | S(rot)=       0.01489298 Eh      9.35 kcal/mol|
 linear molecules ---------------------------------------
|  Dinfh | S(rot)=       0.01082252 Eh      6.79 kcal/mol|
|  Cinfv | S(rot)=       0.01147698 Eh      7.20 kcal/mol|
 --------------------------------------------------------


-------------------
GIBBS FREE ENERGY
-------------------

The Gibbs free energy is G = H - T*S

Total enthalpy                    ...  -1628.40274453 Eh 
Total entropy correction          ...     -0.08705527 Eh    -54.63 kcal/mol
-----------------------------------------------------------------------
Final Gibbs free energy         ...  -1628.48979980 Eh

For completeness - the Gibbs free energy minus the electronic energy
G-E(el)                           ...      0.55770958 Eh    349.97 kcal/mol


Maximum memory used throughout the entire PROP-calculation: 627.2 MB

--------------------------------
SUGGESTED CITATIONS FOR THIS RUN
--------------------------------

Below you find a list of papers that are relevant to this ORCA run
We neither can nor want to force you to cite these papers, but we appreciate if you do
You receive ORCA, which is the product of decades of hard work by many enthusiastic individuals, for free
The only thing we kindly ask in return is that you cite our papers,
We deeply appreciate it, if you show your appreciation for ORCA by not just citing the generic ORCA reference.

Please note that relegating all ORCA citations to the supporting information does *not* help us.
SI sections are not indexed - citations you put there will not count into any citation statistics
But we need these citations in order to attract the funding resources that allow us to do what we are doing

Therefore, if you are a happy ORCA user, please consider citing a few of the papers listed below in the main body of your paper

In addition to the list printed below, the program has created the file input.bibtex that contains the list in bibtex format
You can import this file easily into all common literature databanks and citation aid programs


List of essential papers. We consider these as the minimum necessary citations

  1. Neese, F.
     Software update: the ORCA program system, version 6.0
     WIRES Comput. Molec. Sci. 2025 15(1), e70019
     doi.org/10.1002/wcms.7019

List of papers to cite with high priority. The work reported in these papers was absolutely
necessary for this run to complete.
Our perspective: the developers of density functionals and basis sets usually get cited in chemistry papers
Good! But without the algorithms to do something with them, the functionals or basis sets would not do anything.
Hence, in our opinion, the algorithm design and method developments papers are equally worthy of getting cited

  1. Neese, F.
     An improvement of the resolution of the identity approximation for the formation of the Coulomb matrix
     J. Comp. Chem. 2003 24(14), 1740-1747
     doi.org/10.1002/jcc.10318
  2. Neese, F.; Wennmohs, F.; Hansen, A.; Becker, U.
     Efficient, approximate and parallel Hartree-Fock and hybrid DFT calculations. A 'chain-of-spheres' algorithm for the Hartree-Fock exchange
     Chem. Phys. 2009 356(1-3), 98-109
     doi.org/10.1016/j.chemphys.2008.10.036
  3. Grimme, S.; Antony, J.; Ehrlich, S.; Krieg, H.
     A consistent and accurate ab initio parametrization of density functional dispersion correction (DFT-D) for the 94 elements H-Pu
     J. Chem. Phys. 2010 132 , 154104
     doi.org/10.1063/1.3382344
  4. Bykov, D.; Petrenko, T.; Izsak, R.; Kossmann, S.; Becker, U.; Valeev, E.; Neese, F.
     Efficient implementation of the analytic second derivatives of Hartree-Fock and hybrid DFT energies: a detailed analysis of different approximations
     Molec. Phys. 2015 113 , 1961-1977
     doi.org/10.1080/00268976.2015.1025114
  5. Helmich-Paris, B.; de Souza, B.; Neese, F.; Izsák, R.
     An improved chain of spheres for exchange algorithm
     J. Chem. Phys. 2021 155(10), 104109
     doi.org/10.1063/5.0058766
  6. Neese, F.
     The SHARK Integral Generation and Digestion System
     J. Comp. Chem. 2022 44(3), 381
     doi.org/10.1002/jcc.26942

List of suggested additional citations. These are papers that are important in the 'surrounding' of 
of this run, or papers that preceded the highly important papers. If you like your results we are grateful for a citation.

  1. Izsak, R.; Neese, F.
     An overlap fitted chain of spheres exchange method
     J. Chem. Phys. 2011 135 , 144105
     doi.org/10.1063/1.3646921
  2. Izsak, R.; Hansen, A.; Neese, F.
     The resolution of identity and chain of spheres approximations for the LPNO-CCSD singles Fock term
     Molec. Phys. 2012 110 , 2413-2417
     doi.org/10.1080/00268976.2012.687466
  3. Neese, F.
     The ORCA program system
     WIRES Comput. Molec. Sci. 2012 2(1), 73-78
     doi.org/10.1002/wcms.81
  4. Izsak, R.; Neese, F.; Klopper, W.
     Robust fitting techniques in the chain of spheres approximation to the Fock exchange: The role of the complementary space
     J. Chem. Phys. 2013 139 , 
     doi.org/10.1063/1.4819264
  5. Neese, F.
     Software update: the ORCA program system, version 4.0
     WIRES Comput. Molec. Sci. 2018 8(1), 1-6
     doi.org/10.1002/wcms.1327
  6. Neese, F.; Wennmohs, F.; Becker, U.; Riplinger, C.
     The ORCA quantum chemistry program package
     J. Chem. Phys. 2020 152(22), 224108
     doi.org/10.1063/5.0004608
  7. Neese, F.
     Software update: The ORCA program system—Version 5.0
     WIRES Comput. Molec. Sci. 2022 12(1), e1606
     doi.org/10.1002/wcms.1606

List of optional additional citations

  1. Neese, F.
     Approximate second-order SCF convergence for spin unrestricted wavefunctions
     Chem. Phys. Lett. 2000 325(1-3), 93-98
     doi.org/10.1016/s0009-2614(00)00662-x

Timings for individual modules:

Sum of individual times          ...     1118.536 sec (=  18.642 min)
Startup calculation              ...       33.055 sec (=   0.551 min)   3.0 %
SCF iterations                   ...      236.671 sec (=   3.945 min)  21.2 %
Property integrals               ...      166.259 sec (=   2.771 min)  14.9 %
SCF Response                     ...      423.742 sec (=   7.062 min)  37.9 %
Property calculations            ...      197.394 sec (=   3.290 min)  17.6 %
SCF Gradient evaluation          ...       60.799 sec (=   1.013 min)   5.4 %
Geometry relaxation              ...        0.615 sec (=   0.010 min)   0.1 %
                             ****ORCA TERMINATED NORMALLY****
TOTAL RUN TIME: 0 days 0 hours 31 minutes 47 seconds 120 msec
