
                                 *****************
                                 * O   R   C   A *
                                 *****************

                                            #,                                       
                                            ###                                      
                                            ####                                     
                                            #####                                    
                                            ######                                   
                                           ########,                                 
                                     ,,################,,,,,                         
                               ,,#################################,,                 
                          ,,##########################################,,             
                       ,#########################################, ''#####,          
                    ,#############################################,,   '####,        
                  ,##################################################,,,,####,       
                ,###########''''           ''''###############################       
              ,#####''   ,,,,##########,,,,          '''####'''          '####       
            ,##' ,,,,###########################,,,                        '##       
           ' ,,###''''                  '''############,,,                           
         ,,##''                                '''############,,,,        ,,,,,,###''
      ,#''                                            '''#######################'''  
     '                                                          ''''####''''         
             ,#######,   #######,   ,#######,      ##                                
            ,#'     '#,  ##    ##  ,#'     '#,    #''#        ,####,    ,#,          
            ##       ##  ##   ,#'  ##            #'  '#       #'       ,# #          
            ##       ##  #######   ##           ,######,      #####,      #          
            '#,     ,#'  ##    ##  '#,     ,#' ,#      #,     #,   #      #          
             '#######'   ##     ##  '#######'  #'      '#     '####' #    #          



                #########################################################
                #                        -***-                          #
                #          Department of theory and spectroscopy        #
                #                                                       #
                #                      Frank Neese                      #
                #                                                       #
                #     Directorship, Architecture, Infrastructure        #
                #                    SHARK, DRIVERS                     #
                #        Core code/Algorithms in most modules           #
                #                                                       #
                #        Max Planck Institute fuer Kohlenforschung      #
                #                Kaiser Wilhelm Platz 1                 #
                #                 D-45470 Muelheim/Ruhr                 #
                #                      Germany                          #
                #                                                       #
                #                  All rights reserved                  #
                #                        -***-                          #
                #########################################################


                         Program Version 6.1.0  -  RELEASE   -
                                (GIT: $679e74b7b5$)
                          ($2025-06-10 18:02:51 +0200$)


 With contributions from (in alphabetic order):
[Max-Planck-Institut fuer Kohlenforschung]                               
  Daniel Aravena         : Magnetic Suceptibility                        
  Michael Atanasov       : Ab Initio Ligand Field Theory (pilot matlab implementation)
  Alexander A. Auer      : GIAO ZORA, VPT2 properties, NMR spectrum      
  Ute Becker             : All parallelization in ORCA, NUMFREQ, NUMCALC 
  Giovanni Bistoni       : ED, misc. LED, open-shell LED, HFLD           
  Dmytro Bykov           : pre 5.0 version of the SCF Hessian            
  Marcos Casanova-Páez   : Triplet and SCS-CIS(D). UHF-(DLPNO)-IP/EA/STEOM-CCSD. UHF-CVS-IP/STEOM-CCSD   
  Vijay G. Chilkuri      : MRCI spin determinant printing, contributions to CSF-ICE 
  Pauline Colinet        : FMM embedding                                 
  Dipayan Datta          : RHF DLPNO-CCSD density                        
  Achintya Kumar Dutta   : EOM-CC, STEOM-CC                              
  Nicolas Foglia         : Exact transition moments, OPA infrastructure, MCD improvements    
  Dmitry Ganyushin       : Spin-Orbit,Spin-Spin,Magnetic field MRCI      
  Miquel Garcia-Rates    : C-PCM and meta-GGA Hessian, CCSD/C-PCM, Gaussian charge scheme 
  Tiago L. C. Gouveia    : GS-ROHF, GS-ROCIS                             
  Yang Guo               : DLPNO-NEVPT2, F12-NEVPT2, CIM, IAO-localization        
  Andreas Hansen         : Spin unrestricted coupled pair/coupled cluster methods 
  Ingolf Harden          : AUTO-CI MPn and infrastructure                
  Benjamin Helmich-Paris : MC-RPA, TRAH-(SCF,CASSCF), AVAS, COSX integrals, SCF dyn. polar., MC-PDFT, srDFT 
  Lee Huntington         : MR-EOM, pCC                                   
  Robert Izsak           : Overlap fitted RIJCOSX, COSX-SCS-MP3, EOM     
  Riya Kayal             : Wick's Theorem for AUTO-CI, AUTO-CI UHF-CCSDT 
  Emily Kempfer          : AUTO-CI RHF CISDT and CCSDT, approximate NEVPT4
  Christian Kollmar      : KDIIS, OOCD, Brueckner-CCSD(T), CCSD density, CASPT2, CASPT2-K, improved NEVPT2 
  Axel Koslowski         : Symmetry handling                             
  Simone Kossmann        : meta-GGA functionals, TD-DFT gradient, OOMP2, (MP2 Hessian; deprecated post 5.0) 
  Lucas Lang             : DCDCAS, Hyperfine gauge corrections, ICE-SOC+SSC
  Marvin Lechner         : AUTO-CI (C++ implementation), FIC-MRCC        
  Spencer Leger          : CASSCF response                               
  Dagmar Lenk            : GEPOL surface, SMD, ORCA-2-JSON               
  Dimitrios Liakos       : Extrapolation schemes; Compound Job, Property file
  Dimitrios Manganas     : Further ROCIS development; embedding schemes. LFT, Crystal Embedding 
  Dimitrios Pantazis     : SARC Basis sets                               
  Anastasios Papadopoulos: AUTO-CI, single reference methods and gradients 
  Taras Petrenko         : pre 6.0 DFT Hessian and TD-DFT gradient,  ECA, NRVS 
  Petra Pikulova         : Analytic Raman intensities                    
  Peter Pinski           : DLPNO-MP2, DLPNO-MP2 Gradient                 
  Shashank Vittal Rao    : ES-AILFT, MagRelax                            
  Christoph Reimann      : Effective Core Potentials                     
  Marius Retegan         : Local ZFS, SOC                                
  Christoph Riplinger    : Optimizer, TS searches, QM/MM, DLPNO-CCSD(T), (RO)-DLPNO pert. Triples 
  Michael Roemelt        : Original ROCIS implementation, recursive CI coupling coefficients
  Masaaki Saitow         : Open-shell DLPNO-CCSD energy and density      
  Barbara Sandhoefer     : DKH picture change effects                    
  Yorick L. A. Schmerwitz: GMF and freeze-and-release deltaSCF, NEB S-IDPP initial path                    
  Kantharuban Sivalingam : CASSCF convergence/infrastructure, NEVPT2, NEVPT3, NEVPT4(SD), FIC-MRCI and CEPA variants
  Bernardo de Souza      : ESD, SOC TD-DFT                               
  Georgi L. Stoychev     : AutoAux, RI-MP2 NMR, DLPNO-MP2 response, X2C  
  Van Anh Tran           : RI-MP2 g-tensors                              
  Willem Van den Heuvel  : Paramagnetic NMR                              
  Zikuan Wang            : NOTCH, Electric field optimization            
  Frank Wennmohs         : Technical directorship and infrastructure     
  Hang Xu                : AUTO-CI-Response properties                   
                                                                         
[FACCTs GmbH]                                                            
  Markus Bursch, Nicolas Foglia, Miquel Garcia-Rates, Ingolf Harden, Hagen Neugebauer, Anastasios Papadopoulos, 
  Christoph Riplinger, Bernardo de Souza, Georgi L. Stoychev                                                    
                                                                 
  APM, various basis sets, CI-OPT, improved COSX, DLPNO-Multilevel,           
  DOCKER, DRACO, updates on ESD, Fragmentator, GOAT, IRC, LR-CPCM, L-BFGS, MBIS, meta-GGA TD-DFT gradient, ML-optimized integration grids, 
  MM, NACMEs, nearIR, NEB, NEB-TS, NL-DFT gradient (VV10), 2- and 3-layer-ONIOM, interface openCOSMO-RS, QMMM,   
  Crystal-QMMM, RESP, rigid body optimization, SF, symmetry and pop. for TD-DFT, various functionals, SOLVATOR                                   
                                                                         
[Other institutions]                                                     
  V. Asgeirsson          : NEB                                           
  Christoph Bannwarth    : sTDA-DFT, sTD-DFT, PBEh-3c, B97-3c, D3        
  Giovanni Bistoni       : ETS/NOCV, ADLD/ADEX, COVALED                  
  Martin Brehm           : Molecular dynamics                            
  Ronald Cardenas        : ETS/NOCV                                      
  Martina Colucci        : COVALED                                       
  Sebastian Ehlert       : rSCAN, r2SCAN, r2SCAN-3c, D4, dhf basis sets  
  Marvin Friede          : D4 for Fr, Ra, Ac-Lr                          
  Lars Goerigk           : TD-DFT with DH, B97 family of functionals     
  Stefan Grimme          : VdW corrections, initial TS optimization, DFT functionals, gCP, sTDA/sTD-DF 
  Waldemar Hujo          : DFT-NL                                        
  H. Jonsson             : NEB                                           
  Holger Kruse           : gCP                                           
  Marcel Mueller         : wB97X-3c, vDZP basis set                      
  Hagen Neugebauer       : wr2SCAN, Native XTB                           
  Gianluca Regni         : ADLD/ADEX                                     
  Tobias Risthaus        : pre 6.0 range-separated hybrid DFT and stability analysis
  Lukas Wittmann         : regularized MP2, r2SCAN double-hybrids, wr2SCAN        
                                                                         
We gratefully acknowledge several colleagues who have allowed us to      
interface, adapt or use parts of their codes:                            
  Ed Valeev, F. Pavosevic, A. Kumar             : LibInt (2-el integral package), F12 methods 
  Garnet Chan, S. Sharma, J. Yang, R. Olivares  : DMRG                   
  Ulf Ekstrom                                   : XCFun DFT Library      
  Mihaly Kallay                                 : mrcc  (arbitrary order and MRCC methods)
  Frank Weinhold                                : gennbo (NPA and NBO analysis)           
  Simon Mueller                                 : openCOSMO-RS                            
  Christopher J. Cramer and Donald G. Truhlar   : smd solvation model                     
  S Lehtola, MJT Oliveira, MAL Marques          : LibXC Library                           
  Liviu Ungur et al                             : ANISO software                          


 Your calculation uses the libint2 library for the computation of 2-el integrals
 For citations please refer to: http://libint.valeyev.net

 Your ORCA version has been built with support for libXC version: 7.0.0
 For citations please refer to: https://libxc.gitlab.io

 This ORCA versions uses:
   CBLAS   interface :  Fast vector & matrix operations
   LAPACKE interface :  Fast linear algebra routines
   SCALAPACK package :  Parallel linear algebra routines
   Shared memory     :  Shared parallel matrices


  ***********************************
  * Starting time: Thu Jul 24 16:23:33 2025
  * Host name:     Jacobs-MacBook-Pro.local
  * Process ID:    41976
  * Working dir.:  /Users/jacobmolinnielsen/Developer/FrustActivationProject/FRUST/pipes/_e0ifd0
  ***********************************

NOTE: MaxCore=3072 MB was set to SCF,MP2,MDCI,CIPSI,MRCI,RASCI and CIS
      => If you want to overwrite this, your respective input block should be placed after the MaxCore statement
Your calculation utilizes the atom-pairwise dispersion correction
with the zero-damping scheme (D30)


XCFun DFT library Copyright 2009-2010 Ulf Ekstrom and contributors.
See http://admol.org/xcfun for more information.
This is free software; see the source code for copying conditions.
There is ABSOLUTELY NO WARRANTY; not even for MERCHANTABILITY or FITNESS FOR A PARTICULAR PURPOSE.
For details see the documentation.
Scientific users of this library should cite U. Ekstrom, L. Visscher, R. Bast, A. J. Thorvaldsen and K. Ruud;
J.Chem.Theor.Comp. 2010, DOI: 10.1021/ct100117s
XCFun Version 0.99 

Warning: RI is on but no J-basis has been assigned. Assigning Def2/J (nothing to worry about!)
================================================================================

----- Orbital basis set information -----
Your calculation utilizes the basis: 6-31G**
   H-He, Li-Ne : W. J. Hehre, R. Ditchfield and J.A. Pople, J. Chem. Phys. 56, 2257 (1972).
                 Note: He and Ne are unpublished basis sets taken from the Gaussian program.
                 Note: Li and B from J. D. Dill and J. A. Pople, J. Chem. Phys. 62, 2921 (1975).
   Na - Ar     : M. M. Francl, W. J. Pietro, W. J. Hehre, J. S. Binkley, M. S. Gordon, 
                 D. J. DeFrees and J. A. Pople, J. Chem. Phys. 77, 3654 (1982).
   K - Zn      : V. A. Rassolov, J. A. Pople, M. A. Ratner, and T. L. Windus, J. Chem. Phys. 109, 1223 (1998).

----- AuxJ basis set information -----
Your calculation utilizes the auxiliary basis: def2/J
   H-Rn: F. Weigend, Phys. Chem. Chem. Phys. 8, 1057 (2006).
   Fr-Lr: K. Eichkorn, F. Weigend, O. Treutler, R. Ahlrichs; Theor. Chem. Acc. 97, 119 (1997).

================================================================================
                                        WARNINGS
                       Please study these warnings very carefully!
================================================================================


WARNING: Geometry Optimization
  ===> : Switching off AutoStart
         For restart on a previous wavefunction, please use MOREAD

================================================================================
                                       INPUT FILE
================================================================================
NAME = input.inp
|  1> # Automatically generated ORCA input
|  2> 
|  3> # Number of cores
|  4> %pal nprocs 10 end
|  5> # RAM per core
|  6> %maxcore 3072
|  7> 
|  8> ! wB97X-D3 
|  9> ! 6-31G** 
| 10> ! TightSCF 
| 11> ! SlowConv 
| 12> ! OptTS 
| 13> ! Freq 
| 14> ! NoSym 
| 15> 
| 16> %geom
| 17>   Calc_Hess true
| 18> end
| 19> %Output
| 20>   JSONPropFile True
| 21> End
| 22> 
| 23> 
| 24> *xyz 0 1 
| 25> C        -2.05648000     -2.08167000      0.88775000
| 26> C        -0.71542000     -1.70910000      0.93465000
| 27> C        -0.28417000     -0.42133000      0.59502000
| 28> C        -1.26942000      0.52424000      0.22842000
| 29> C        -2.61511000      0.14482000      0.17402000
| 30> C        -3.00707000     -1.15097000      0.49263000
| 31> H        -2.34916000     -3.09576000      1.14203000
| 32> H         0.02192000     -2.45472000      1.21885000
| 33> H        -3.36878000      0.87022000     -0.11327000
| 34> H        -4.05730000     -1.42268000      0.44034000
| 35> B         1.26450000     -0.02546000      0.55324000
| 36> H         1.77671000     -1.14041000     -0.06933000
| 37> C         1.99846000      0.25456000      1.96532000
| 38> C         1.62154000     -0.15576000      3.22695000
| 39> C         2.29477000      0.51051000      4.28187000
| 40> H         0.87672000     -0.92962000      3.37197000
| 41> C         3.18118000      1.44486000      3.81584000
| 42> H         2.12660000      0.31592000      5.33382000
| 43> H         3.81495000      2.09868000      4.39930000
| 44> H         1.62131000      0.73753000     -0.30016000
| 45> B         2.59844000     -1.50111000      0.82102000
| 46> O         3.91459000     -1.36673000      0.48573000
| 47> O         2.30659000     -2.62546000      1.54984000
| 48> C         4.63314000     -2.30159000      1.32579000
| 49> C         3.53597000     -3.38385000      1.63830000
| 50> C         5.83075000     -2.82008000      0.54378000
| 51> H         6.53511000     -2.00357000      0.36766000
| 52> H         6.34785000     -3.60057000      1.11085000
| 53> H         5.53380000     -3.22754000     -0.42357000
| 54> C         5.10362000     -1.54319000      2.56676000
| 55> H         5.69863000     -0.68425000      2.24865000
| 56> H         4.26368000     -1.17124000      3.15863000
| 57> H         5.72436000     -2.18025000      3.20292000
| 58> C         3.62860000     -3.99703000      3.02758000
| 59> H         2.83537000     -4.73763000      3.15694000
| 60> H         4.59101000     -4.50098000      3.16019000
| 61> H         3.51802000     -3.23896000      3.80436000
| 62> C         3.44580000     -4.47859000      0.57560000
| 63> H         4.30831000     -5.14956000      0.61422000
| 64> H         2.54119000     -5.06516000      0.75236000
| 65> H         3.38027000     -4.04842000     -0.42733000
| 66> N        -0.86959000      1.84905000     -0.09622000
| 67> C        -1.61479000      2.56829000     -1.12848000
| 68> C        -0.40969000      2.68835000      1.01271000
| 69> S         3.19525000      1.51044000      2.10425000
| 70> C         0.44888000      3.84519000      0.49107000
| 71> H         0.17154000      2.12116000      1.76000000
| 72> H        -1.29570000      3.09377000      1.55029000
| 73> C        -0.33795000      4.65087000     -0.54569000
| 74> H         1.36914000      3.43350000      0.02111000
| 75> H         0.75067000      4.50304000      1.33417000
| 76> C        -0.77332000      3.72426000     -1.68346000
| 77> H         0.29524000      5.47106000     -0.94660000
| 78> H        -1.23505000      5.10286000     -0.06725000
| 79> H         0.13021000      3.31009000     -2.18326000
| 80> H        -1.36019000      4.29288000     -2.43626000
| 81> H        -2.56117000      2.96909000     -0.70177000
| 82> H        -1.86244000      1.88775000     -1.97297000
| 83> *
| 84> 
| 85> 
| 86>                          ****END OF INPUT****
================================================================================

                       *****************************
                       * Geometry Optimization Run *
                       *****************************

Geometry optimization settings:
Update method            Update   .... Bofill
Choice of coordinates    CoordSys .... (2022) Redundant Internals
Initial Hessian          InHess   .... Almloef's Model
Max. no of cycles        MaxIter  .... 174

Convergence Tolerances:
Energy Change            TolE     ....  5.0000e-06 Eh
Max. Gradient            TolMAXG  ....  3.0000e-04 Eh/bohr
RMS Gradient             TolRMSG  ....  1.0000e-04 Eh/bohr
Max. Displacement        TolMAXD  ....  4.0000e-03 bohr
RMS Displacement         TolRMSD  ....  2.0000e-03 bohr
Strict Convergence                .... False

------------------------------------------------------------------------------
                        ORCA OPTIMIZATION COORDINATE SETUP
------------------------------------------------------------------------------

The optimization will be done in redundant internal coordinates (2022)
Making redundant internal coordinates   ...  (2022 redundants) done
Following TS mode number                ...     0
Evaluating the initial hessian          ...  (Is done on the fly) done
Evaluating the coordinates              ...  done
Calculating the B-matrix                .... done
Calculating the G-matrix                .... done
The number of degrees of freedom        ....  325

    -----------------------------------------------------------------
                    Redundant Internal Coordinates


    -----------------------------------------------------------------
         Definition                    Initial Value    d2E/dq (diagonal element)
    -----------------------------------------------------------------
      1. B(C   1,C   0)                  1.3926         0.000000   
      2. B(C   2,C   1)                  1.3999         0.000000   
      3. B(C   3,C   2)                  1.4139         0.000000   
      4. B(C   4,C   3)                  1.3992         0.000000   
      5. B(C   5,C   4)                  1.3908         0.000000   
      6. B(C   5,C   0)                  1.3878         0.000000   
      7. B(H   6,C   0)                  1.0857         0.000000   
      8. B(H   7,C   1)                  1.0865         0.000000   
      9. B(H   8,C   4)                  1.0848         0.000000   
     10. B(H   9,C   5)                  1.0861         0.000000   
     11. B(B  10,C   2)                  1.5990         0.000000   
     12. B(H  11,B  10)                  1.3759         0.000000   
     13. B(C  12,B  10)                  1.6159         0.000000   
     14. B(C  13,C  12)                  1.3792         0.000000   
     15. B(C  14,C  13)                  1.4177         0.000000   
     16. B(H  15,C  13)                  1.0838         0.000000   
     17. B(C  16,C  14)                  1.3696         0.000000   
     18. B(H  17,C  14)                  1.0829         0.000000   
     19. B(H  18,C  16)                  1.0815         0.000000   
     20. B(H  19,B  10)                  1.1991         0.000000   
     21. B(B  20,H  11)                  1.2641         0.000000   
     22. B(B  20,B  10)                  2.0071         0.000000   
     23. B(O  21,B  20)                  1.3648         0.000000   
     24. B(O  22,B  20)                  1.3713         0.000000   
     25. B(C  23,O  21)                  1.4477         0.000000   
     26. B(C  24,C  23)                  1.5725         0.000000   
     27. B(C  24,O  22)                  1.4472         0.000000   
     28. B(C  25,C  23)                  1.5214         0.000000   
     29. B(H  26,C  25)                  1.0926         0.000000   
     30. B(H  27,C  25)                  1.0946         0.000000   
     31. B(H  28,C  25)                  1.0909         0.000000   
     32. B(C  29,C  23)                  1.5286         0.000000   
     33. B(H  30,C  29)                  1.0922         0.000000   
     34. B(H  31,C  29)                  1.0928         0.000000   
     35. B(H  32,C  29)                  1.0936         0.000000   
     36. B(C  33,C  24)                  1.5214         0.000000   
     37. B(H  34,C  33)                  1.0929         0.000000   
     38. B(H  35,C  33)                  1.0944         0.000000   
     39. B(H  36,C  33)                  1.0910         0.000000   
     40. B(C  37,C  24)                  1.5284         0.000000   
     41. B(H  38,C  37)                  1.0934         0.000000   
     42. B(H  39,C  37)                  1.0925         0.000000   
     43. B(H  40,C  37)                  1.0933         0.000000   
     44. B(N  41,C   3)                  1.4214         0.000000   
     45. B(C  42,N  41)                  1.4623         0.000000   
     46. B(C  43,N  41)                  1.4648         0.000000   
     47. B(S  44,C  16)                  1.7129         0.000000   
     48. B(S  44,C  12)                  1.7404         0.000000   
     49. B(C  45,C  43)                  1.5322         0.000000   
     50. B(H  46,C  43)                  1.1036         0.000000   
     51. B(H  47,C  43)                  1.1128         0.000000   
     52. B(C  48,C  45)                  1.5307         0.000000   
     53. B(H  49,C  45)                  1.1123         0.000000   
     54. B(H  50,C  45)                  1.1112         0.000000   
     55. B(C  51,C  48)                  1.5306         0.000000   
     56. B(C  51,C  42)                  1.5337         0.000000   
     57. B(H  52,C  48)                  1.1110         0.000000   
     58. B(H  53,C  48)                  1.1126         0.000000   
     59. B(H  54,C  51)                  1.1125         0.000000   
     60. B(H  55,C  51)                  1.1111         0.000000   
     61. B(H  56,C  42)                  1.1128         0.000000   
     62. B(H  57,C  42)                  1.1125         0.000000   
     63. A(C   5,C   0,H   6)          120.5602         0.000000   
     64. A(C   1,C   0,C   5)          119.3257         0.000000   
     65. A(C   1,C   0,H   6)          120.1057         0.000000   
     66. A(C   0,C   1,H   7)          118.6029         0.000000   
     67. A(C   2,C   1,H   7)          119.0594         0.000000   
     68. A(C   0,C   1,C   2)          122.3156         0.000000   
     69. A(C   3,C   2,B  10)          120.1680         0.000000   
     70. A(C   1,C   2,C   3)          117.6089         0.000000   
     71. A(C   1,C   2,B  10)          122.1709         0.000000   
     72. A(C   2,C   3,C   4)          119.9270         0.000000   
     73. A(C   4,C   3,N  41)          120.9569         0.000000   
     74. A(C   2,C   3,N  41)          119.1117         0.000000   
     75. A(C   3,C   4,C   5)          120.9836         0.000000   
     76. A(C   5,C   4,H   8)          119.2030         0.000000   
     77. A(C   3,C   4,H   8)          119.8119         0.000000   
     78. A(C   4,C   5,H   9)          119.6431         0.000000   
     79. A(C   0,C   5,C   4)          119.8031         0.000000   
     80. A(C   0,C   5,H   9)          120.5504         0.000000   
     81. A(C   2,B  10,C  12)          117.3861         0.000000   
     82. A(C  12,B  10,H  19)          112.1185         0.000000   
     83. A(C   2,B  10,H  19)          117.6673         0.000000   
     84. A(C   2,B  10,H  11)           99.8901         0.000000   
     85. A(H  11,B  10,H  19)           94.7506         0.000000   
     86. A(C   2,B  10,B  20)          117.2692         0.000000   
     87. A(H  19,B  10,B  20)          111.4081         0.000000   
     88. A(H  11,B  10,C  12)          111.5153         0.000000   
     89. A(C  12,B  10,B  20)           73.0791         0.000000   
     90. A(H  11,B  10,B  20)           38.4812         0.000000   
     91. A(B  10,H  11,B  20)           98.8888         0.000000   
     92. A(B  10,C  12,C  13)          128.5870         0.000000   
     93. A(C  13,C  12,S  44)          109.2445         0.000000   
     94. A(B  10,C  12,S  44)          120.4750         0.000000   
     95. A(C  14,C  13,H  15)          124.2166         0.000000   
     96. A(C  12,C  13,H  15)          121.5096         0.000000   
     97. A(C  12,C  13,C  14)          114.2721         0.000000   
     98. A(C  16,C  14,H  17)          123.6147         0.000000   
     99. A(C  13,C  14,C  16)          112.0079         0.000000   
    100. A(C  13,C  14,H  17)          124.3750         0.000000   
    101. A(C  14,C  16,H  18)          127.4540         0.000000   
    102. A(H  18,C  16,S  44)          120.7394         0.000000   
    103. A(C  14,C  16,S  44)          111.8038         0.000000   
    104. A(O  21,B  20,O  22)          114.6156         0.000000   
    105. A(H  11,B  20,O  22)          118.0293         0.000000   
    106. A(B  10,B  20,O  22)          122.1579         0.000000   
    107. A(H  11,B  20,O  21)          115.1968         0.000000   
    108. A(B  10,B  20,O  21)          122.3936         0.000000   
    109. A(B  10,B  20,H  11)           42.6300         0.000000   
    110. A(B  20,O  21,C  23)          105.8129         0.000000   
    111. A(B  20,O  22,C  24)          106.3413         0.000000   
    112. A(C  25,C  23,C  29)          110.1268         0.000000   
    113. A(C  24,C  23,C  29)          113.2587         0.000000   
    114. A(O  21,C  23,C  29)          107.6656         0.000000   
    115. A(C  24,C  23,C  25)          114.6349         0.000000   
    116. A(O  21,C  23,C  25)          108.2103         0.000000   
    117. A(O  21,C  23,C  24)          102.3242         0.000000   
    118. A(O  22,C  24,C  33)          108.5871         0.000000   
    119. A(O  22,C  24,C  23)          102.7030         0.000000   
    120. A(C  33,C  24,C  37)          110.4774         0.000000   
    121. A(C  23,C  24,C  37)          113.3256         0.000000   
    122. A(O  22,C  24,C  37)          106.4239         0.000000   
    123. A(C  23,C  24,C  33)          114.6065         0.000000   
    124. A(H  27,C  25,H  28)          108.7641         0.000000   
    125. A(H  26,C  25,H  28)          108.1602         0.000000   
    126. A(C  23,C  25,H  28)          111.6432         0.000000   
    127. A(H  26,C  25,H  27)          108.1688         0.000000   
    128. A(C  23,C  25,H  27)          110.4010         0.000000   
    129. A(C  23,C  25,H  26)          109.6109         0.000000   
    130. A(H  31,C  29,H  32)          108.6332         0.000000   
    131. A(H  30,C  29,H  32)          108.5617         0.000000   
    132. A(C  23,C  29,H  32)          110.9749         0.000000   
    133. A(C  23,C  29,H  31)          111.8398         0.000000   
    134. A(C  23,C  29,H  30)          108.7473         0.000000   
    135. A(H  30,C  29,H  31)          107.9865         0.000000   
    136. A(H  35,C  33,H  36)          108.8329         0.000000   
    137. A(H  34,C  33,H  36)          108.2411         0.000000   
    138. A(C  24,C  33,H  36)          111.3424         0.000000   
    139. A(H  34,C  33,H  35)          108.1721         0.000000   
    140. A(C  24,C  33,H  35)          110.4732         0.000000   
    141. A(C  24,C  33,H  34)          109.6948         0.000000   
    142. A(H  39,C  37,H  40)          108.0620         0.000000   
    143. A(H  38,C  37,H  40)          108.7314         0.000000   
    144. A(C  24,C  37,H  40)          111.0735         0.000000   
    145. A(H  38,C  37,H  39)          108.5394         0.000000   
    146. A(C  24,C  37,H  39)          108.7185         0.000000   
    147. A(C  24,C  37,H  38)          111.6192         0.000000   
    148. A(C  42,N  41,C  43)          114.3685         0.000000   
    149. A(C   3,N  41,C  43)          116.7085         0.000000   
    150. A(C   3,N  41,C  42)          118.4456         0.000000   
    151. A(C  51,C  42,H  57)          107.9695         0.000000   
    152. A(N  41,C  42,H  57)          110.3915         0.000000   
    153. A(C  51,C  42,H  56)          109.5044         0.000000   
    154. A(N  41,C  42,H  56)          109.8688         0.000000   
    155. A(N  41,C  42,C  51)          110.2772         0.000000   
    156. A(H  56,C  42,H  57)          108.7892         0.000000   
    157. A(H  46,C  43,H  47)          106.2272         0.000000   
    158. A(C  45,C  43,H  47)          109.6059         0.000000   
    159. A(N  41,C  43,H  47)          108.9343         0.000000   
    160. A(C  45,C  43,H  46)          108.8720         0.000000   
    161. A(N  41,C  43,H  46)          112.5505         0.000000   
    162. A(N  41,C  43,C  45)          110.5368         0.000000   
    163. A(C  12,S  44,C  16)           92.6647         0.000000   
    164. A(H  49,C  45,H  50)          108.3611         0.000000   
    165. A(C  48,C  45,H  50)          109.9930         0.000000   
    166. A(C  43,C  45,H  50)          109.9306         0.000000   
    167. A(C  48,C  45,H  49)          109.5069         0.000000   
    168. A(C  43,C  45,H  49)          109.1477         0.000000   
    169. A(C  43,C  45,C  48)          109.8744         0.000000   
    170. A(H  52,C  48,H  53)          108.3477         0.000000   
    171. A(C  51,C  48,H  53)          109.6475         0.000000   
    172. A(C  45,C  48,H  53)          109.6955         0.000000   
    173. A(C  51,C  48,H  52)          109.9253         0.000000   
    174. A(C  45,C  48,H  52)          109.8776         0.000000   
    175. A(C  45,C  48,C  51)          109.3324         0.000000   
    176. A(H  54,C  51,H  55)          108.3680         0.000000   
    177. A(C  48,C  51,H  55)          110.1256         0.000000   
    178. A(C  42,C  51,H  55)          109.9441         0.000000   
    179. A(C  48,C  51,H  54)          109.1668         0.000000   
    180. A(C  42,C  51,H  54)          109.1202         0.000000   
    181. A(C  42,C  51,C  48)          110.0819         0.000000   
    182. D(C   2,C   1,C   0,H   6)    178.9113         0.000000   
    183. D(H   7,C   1,C   0,H   6)      0.6387         0.000000   
    184. D(H   7,C   1,C   0,C   5)   -178.3170         0.000000   
    185. D(C   2,C   1,C   0,C   5)     -0.0443         0.000000   
    186. D(C   3,C   2,C   1,H   7)    179.9241         0.000000   
    187. D(C   3,C   2,C   1,C   0)      1.6590         0.000000   
    188. D(B  10,C   2,C   1,C   0)   -175.7149         0.000000   
    189. D(B  10,C   2,C   1,H   7)      2.5502         0.000000   
    190. D(N  41,C   3,C   2,C   1)    178.7340         0.000000   
    191. D(N  41,C   3,C   2,B  10)     -3.8371         0.000000   
    192. D(C   4,C   3,C   2,B  10)    175.4077         0.000000   
    193. D(C   4,C   3,C   2,C   1)     -2.0212         0.000000   
    194. D(C   5,C   4,C   3,N  41)   -179.9454         0.000000   
    195. D(H   8,C   4,C   3,C   2)   -179.6317         0.000000   
    196. D(C   5,C   4,C   3,C   2)      0.8240         0.000000   
    197. D(H   8,C   4,C   3,N  41)     -0.4011         0.000000   
    198. D(H   9,C   5,C   4,H   8)      0.6240         0.000000   
    199. D(C   0,C   5,C   4,H   8)   -178.7081         0.000000   
    200. D(H   9,C   5,C   0,H   6)      0.4967         0.000000   
    201. D(C   0,C   5,C   4,C   3)      0.8390         0.000000   
    202. D(H   9,C   5,C   0,C   1)    179.4475         0.000000   
    203. D(H   9,C   5,C   4,C   3)   -179.8289         0.000000   
    204. D(C   4,C   5,C   0,C   1)     -1.2266         0.000000   
    205. D(C   4,C   5,C   0,H   6)    179.8226         0.000000   
    206. D(H  19,B  10,C   2,C   3)    -33.8297         0.000000   
    207. D(C  12,B  10,C   2,C   3)    104.7949         0.000000   
    208. D(C  12,B  10,C   2,C   1)    -77.8967         0.000000   
    209. D(H  11,B  10,C   2,C   3)   -134.5684         0.000000   
    210. D(H  11,B  10,C   2,C   1)     42.7399         0.000000   
    211. D(H  19,B  10,C   2,C   1)    143.4787         0.000000   
    212. D(B  20,H  11,B  10,C   2)   -121.8755         0.000000   
    213. D(B  20,H  11,B  10,H  19)    118.9510         0.000000   
    214. D(B  20,H  11,B  10,C  12)      2.9185         0.000000   
    215. D(S  44,C  12,B  10,C   2)   -142.7687         0.000000   
    216. D(C  13,C  12,B  10,B  20)    -91.7156         0.000000   
    217. D(C  13,C  12,B  10,H  19)    161.5350         0.000000   
    218. D(C  13,C  12,B  10,H  11)    -93.6133         0.000000   
    219. D(S  44,C  12,B  10,H  11)    102.8913         0.000000   
    220. D(C  13,C  12,B  10,C   2)     20.7266         0.000000   
    221. D(H  15,C  13,C  12,S  44)    179.5572         0.000000   
    222. D(H  15,C  13,C  12,B  10)     14.5880         0.000000   
    223. D(C  14,C  13,C  12,S  44)     -0.8904         0.000000   
    224. D(C  14,C  13,C  12,B  10)   -165.8596         0.000000   
    225. D(H  17,C  14,C  13,H  15)     -0.3866         0.000000   
    226. D(H  17,C  14,C  13,C  12)   -179.9251         0.000000   
    227. D(C  16,C  14,C  13,C  12)      0.6235         0.000000   
    228. D(C  16,C  14,C  13,H  15)   -179.8380         0.000000   
    229. D(S  44,C  16,C  14,C  13)     -0.0428         0.000000   
    230. D(S  44,C  16,C  14,H  17)   -179.4991         0.000000   
    231. D(H  18,C  16,C  14,H  17)     -0.1041         0.000000   
    232. D(H  18,C  16,C  14,C  13)    179.3522         0.000000   
    233. D(O  22,B  20,H  11,B  10)    108.1789         0.000000   
    234. D(O  21,B  20,B  10,H  19)     23.6675         0.000000   
    235. D(O  21,B  20,B  10,C  12)    -83.9977         0.000000   
    236. D(O  21,B  20,B  10,H  11)     93.1643         0.000000   
    237. D(O  21,B  20,B  10,C   2)    163.4143         0.000000   
    238. D(H  11,B  20,B  10,H  19)    -69.4968         0.000000   
    239. D(O  21,B  20,H  11,B  10)   -111.2898         0.000000   
    240. D(H  11,B  20,B  10,C  12)   -177.1620         0.000000   
    241. D(H  11,B  20,B  10,C   2)     70.2500         0.000000   
    242. D(C  23,O  21,B  20,H  11)   -156.6885         0.000000   
    243. D(C  23,O  21,B  20,O  22)    -14.7994         0.000000   
    244. D(C  23,O  21,B  20,B  10)    154.9513         0.000000   
    245. D(C  24,O  22,B  20,O  21)     -4.4363         0.000000   
    246. D(C  24,O  22,B  20,H  11)    136.3163         0.000000   
    247. D(C  24,O  22,B  20,B  10)   -174.2140         0.000000   
    248. D(C  29,C  23,O  21,B  20)    -93.9736         0.000000   
    249. D(C  25,C  23,O  21,B  20)    147.0177         0.000000   
    250. D(C  24,C  23,O  21,B  20)     25.6159         0.000000   
    251. D(C  33,C  24,C  23,C  29)    -29.8417         0.000000   
    252. D(C  33,C  24,C  23,C  25)     97.6857         0.000000   
    253. D(C  33,C  24,C  23,O  21)   -145.4362         0.000000   
    254. D(O  22,C  24,C  23,C  29)     87.7142         0.000000   
    255. D(O  22,C  24,C  23,C  25)   -144.7584         0.000000   
    256. D(O  22,C  24,C  23,O  21)    -27.8804         0.000000   
    257. D(C  37,C  24,O  22,B  20)    -99.4258         0.000000   
    258. D(C  23,C  24,O  22,B  20)     19.8886         0.000000   
    259. D(C  33,C  24,O  22,B  20)    141.6326         0.000000   
    260. D(H  27,C  25,C  23,C  29)     67.8243         0.000000   
    261. D(H  27,C  25,C  23,C  24)    -61.2801         0.000000   
    262. D(H  27,C  25,C  23,O  21)   -174.7368         0.000000   
    263. D(H  26,C  25,C  23,C  29)    -51.2331         0.000000   
    264. D(H  26,C  25,C  23,C  24)    179.6626         0.000000   
    265. D(H  26,C  25,C  23,O  21)     66.2059         0.000000   
    266. D(H  31,C  29,C  23,C  25)   -179.1046         0.000000   
    267. D(H  31,C  29,C  23,C  24)    -49.2582         0.000000   
    268. D(H  31,C  29,C  23,O  21)     63.1193         0.000000   
    269. D(H  30,C  29,C  23,C  25)     61.7300         0.000000   
    270. D(H  30,C  29,C  23,C  24)   -168.4236         0.000000   
    271. D(H  30,C  29,C  23,O  21)    -56.0461         0.000000   
    272. D(H  35,C  33,C  24,C  37)     68.8924         0.000000   
    273. D(H  35,C  33,C  24,C  23)    -60.5946         0.000000   
    274. D(H  35,C  33,C  24,O  22)   -174.7480         0.000000   
    275. D(H  34,C  33,C  24,C  37)    -50.2659         0.000000   
    276. D(H  34,C  33,C  24,C  23)   -179.7529         0.000000   
    277. D(H  34,C  33,C  24,O  22)     66.0937         0.000000   
    278. D(H  39,C  37,C  24,C  33)     61.3074         0.000000   
    279. D(H  39,C  37,C  24,C  23)   -168.5229         0.000000   
    280. D(H  39,C  37,C  24,O  22)    -56.3897         0.000000   
    281. D(H  38,C  37,C  24,C  33)    -58.3890         0.000000   
    282. D(H  38,C  37,C  24,C  23)     71.7807         0.000000   
    283. D(H  38,C  37,C  24,O  22)   -176.0862         0.000000   
    284. D(C  43,N  41,C   3,C   4)    109.4882         0.000000   
    285. D(C  43,N  41,C   3,C   2)    -71.2750         0.000000   
    286. D(C  42,N  41,C   3,C   4)    -33.4385         0.000000   
    287. D(C  42,N  41,C   3,C   2)    145.7983         0.000000   
    288. D(H  57,C  42,N  41,C   3)    -40.6425         0.000000   
    289. D(H  56,C  42,N  41,C  43)    -64.4209         0.000000   
    290. D(H  56,C  42,N  41,C   3)     79.3380         0.000000   
    291. D(C  51,C  42,N  41,C  43)     56.3750         0.000000   
    292. D(C  51,C  42,N  41,C   3)   -159.8661         0.000000   
    293. D(H  47,C  43,N  41,C   3)    -80.4235         0.000000   
    294. D(H  46,C  43,N  41,C  42)   -178.4693         0.000000   
    295. D(H  46,C  43,N  41,C   3)     37.1147         0.000000   
    296. D(C  45,C  43,N  41,C  42)    -56.4936         0.000000   
    297. D(C  45,C  43,N  41,C   3)    159.0904         0.000000   
    298. D(C  12,S  44,C  16,H  18)   -179.8352         0.000000   
    299. D(C  12,S  44,C  16,C  14)     -0.3940         0.000000   
    300. D(C  16,S  44,C  12,C  13)      0.7250         0.000000   
    301. D(C  16,S  44,C  12,B  10)    167.1211         0.000000   
    302. D(H  49,C  45,C  43,H  47)    175.8756         0.000000   
    303. D(H  49,C  45,C  43,H  46)     60.0739         0.000000   
    304. D(H  49,C  45,C  43,N  41)    -64.0403         0.000000   
    305. D(C  48,C  45,C  43,H  47)    -64.0333         0.000000   
    306. D(C  48,C  45,C  43,H  46)   -179.8350         0.000000   
    307. D(C  48,C  45,C  43,N  41)     56.0508         0.000000   
    308. D(C  51,C  48,C  45,C  43)    -57.5655         0.000000   
    309. D(H  52,C  48,C  45,H  50)     60.5647         0.000000   
    310. D(H  52,C  48,C  45,H  49)    -58.4154         0.000000   
    311. D(H  52,C  48,C  45,C  43)   -178.2882         0.000000   
    312. D(C  51,C  48,C  45,H  50)   -178.7126         0.000000   
    313. D(C  51,C  48,C  45,H  49)     62.3073         0.000000   
    314. D(H  54,C  51,C  48,H  53)    177.6572         0.000000   
    315. D(H  54,C  51,C  48,C  45)    -62.0452         0.000000   
    316. D(C  42,C  51,C  48,H  53)    -62.5876         0.000000   
    317. D(C  42,C  51,C  48,H  52)    178.4037         0.000000   
    318. D(C  42,C  51,C  48,C  45)     57.7100         0.000000   
    319. D(H  54,C  51,C  42,H  57)    -57.0357         0.000000   
    320. D(H  54,C  51,C  42,H  56)   -175.3363         0.000000   
    321. D(H  54,C  51,C  42,N  41)     63.6500         0.000000   
    322. D(C  48,C  51,C  42,H  57)   -176.8192         0.000000   
    323. D(H  54,C  51,C  48,H  52)     58.6485         0.000000   
    324. D(C  48,C  51,C  42,H  56)     64.8803         0.000000   
    325. D(C  48,C  51,C  42,N  41)    -56.1334         0.000000   
    -----------------------------------------------------------------

Number of atoms                         .... 58
Number of degrees of freedom            .... 325


         *************************************************************
         *                GEOMETRY OPTIMIZATION CYCLE   1            *
         *************************************************************
---------------------------------
CARTESIAN COORDINATES (ANGSTROEM)
---------------------------------
  C     -2.056480   -2.081670    0.887750
  C     -0.715420   -1.709100    0.934650
  C     -0.284170   -0.421330    0.595020
  C     -1.269420    0.524240    0.228420
  C     -2.615110    0.144820    0.174020
  C     -3.007070   -1.150970    0.492630
  H     -2.349160   -3.095760    1.142030
  H      0.021920   -2.454720    1.218850
  H     -3.368780    0.870220   -0.113270
  H     -4.057300   -1.422680    0.440340
  B      1.264500   -0.025460    0.553240
  H      1.776710   -1.140410   -0.069330
  C      1.998460    0.254560    1.965320
  C      1.621540   -0.155760    3.226950
  C      2.294770    0.510510    4.281870
  H      0.876720   -0.929620    3.371970
  C      3.181180    1.444860    3.815840
  H      2.126600    0.315920    5.333820
  H      3.814950    2.098680    4.399300
  H      1.621310    0.737530   -0.300160
  B      2.598440   -1.501110    0.821020
  O      3.914590   -1.366730    0.485730
  O      2.306590   -2.625460    1.549840
  C      4.633140   -2.301590    1.325790
  C      3.535970   -3.383850    1.638300
  C      5.830750   -2.820080    0.543780
  H      6.535110   -2.003570    0.367660
  H      6.347850   -3.600570    1.110850
  H      5.533800   -3.227540   -0.423570
  C      5.103620   -1.543190    2.566760
  H      5.698630   -0.684250    2.248650
  H      4.263680   -1.171240    3.158630
  H      5.724360   -2.180250    3.202920
  C      3.628600   -3.997030    3.027580
  H      2.835370   -4.737630    3.156940
  H      4.591010   -4.500980    3.160190
  H      3.518020   -3.238960    3.804360
  C      3.445800   -4.478590    0.575600
  H      4.308310   -5.149560    0.614220
  H      2.541190   -5.065160    0.752360
  H      3.380270   -4.048420   -0.427330
  N     -0.869590    1.849050   -0.096220
  C     -1.614790    2.568290   -1.128480
  C     -0.409690    2.688350    1.012710
  S      3.195250    1.510440    2.104250
  C      0.448880    3.845190    0.491070
  H      0.171540    2.121160    1.760000
  H     -1.295700    3.093770    1.550290
  C     -0.337950    4.650870   -0.545690
  H      1.369140    3.433500    0.021110
  H      0.750670    4.503040    1.334170
  C     -0.773320    3.724260   -1.683460
  H      0.295240    5.471060   -0.946600
  H     -1.235050    5.102860   -0.067250
  H      0.130210    3.310090   -2.183260
  H     -1.360190    4.292880   -2.436260
  H     -2.561170    2.969090   -0.701770
  H     -1.862440    1.887750   -1.972970

----------------------------
CARTESIAN COORDINATES (A.U.)
----------------------------
  NO LB      ZA    FRAG     MASS         X           Y           Z
   0 C     6.0000    0    12.011   -3.886184   -3.933786    1.677604
   1 C     6.0000    0    12.011   -1.351948   -3.229731    1.766233
   2 C     6.0000    0    12.011   -0.537003   -0.796198    1.124425
   3 C     6.0000    0    12.011   -2.398856    0.990670    0.431651
   4 C     6.0000    0    12.011   -4.941842    0.273670    0.328850
   5 C     6.0000    0    12.011   -5.682539   -2.175018    0.930936
   6 H     1.0000    0     1.008   -4.439269   -5.850139    2.158124
   7 H     1.0000    0     1.008    0.041423   -4.638749    2.303293
   8 H     1.0000    0     1.008   -6.366072    1.644477   -0.214049
   9 H     1.0000    0     1.008   -7.667186   -2.688476    0.832122
  10 B     5.0000    0    10.810    2.389559   -0.048112    1.045472
  11 H     1.0000    0     1.008    3.357495   -2.155063   -0.131015
  12 C     6.0000    0    12.011    3.776542    0.481049    3.713917
  13 C     6.0000    0    12.011    3.064267   -0.294344    6.098052
  14 C     6.0000    0    12.011    4.336487    0.964724    8.091562
  15 H     1.0000    0     1.008    1.656761   -1.756727    6.372100
  16 C     6.0000    0    12.011    6.011559    2.730390    7.210893
  17 H     1.0000    0     1.008    4.018692    0.597002   10.079459
  18 H     1.0000    0     1.008    7.209211    3.965930    8.313472
  19 H     1.0000    0     1.008    3.063832    1.393730   -0.567220
  20 B     5.0000    0    10.810    4.910340   -2.836687    1.551503
  21 O     8.0000    0    15.999    7.397503   -2.582745    0.917897
  22 O     8.0000    0    15.999    4.358823   -4.961400    2.928773
  23 C     6.0000    0    12.011    8.755366   -4.349375    2.505380
  24 C     6.0000    0    12.011    6.682015   -6.394550    3.095938
  25 C     6.0000    0    12.011   11.018521   -5.329179    1.027595
  26 H     1.0000    0     1.008   12.349568   -3.786199    0.694777
  27 H     1.0000    0     1.008   11.995698   -6.804091    2.099202
  28 H     1.0000    0     1.008   10.457366   -6.099167   -0.800431
  29 C     6.0000    0    12.011    9.644444   -2.916206    4.850473
  30 H     1.0000    0     1.008   10.768850   -1.293045    4.249333
  31 H     1.0000    0     1.008    8.057188   -2.213323    5.968946
  32 H     1.0000    0     1.008   10.817473   -4.120075    6.052642
  33 C     6.0000    0    12.011    6.857060   -7.553292    5.721297
  34 H     1.0000    0     1.008    5.358073   -8.952823    5.965752
  35 H     1.0000    0     1.008    8.675752   -8.505620    5.971894
  36 H     1.0000    0     1.008    6.648094   -6.120747    7.189199
  37 C     6.0000    0    12.011    6.511618   -8.463309    1.087726
  38 H     1.0000    0     1.008    8.141526   -9.731258    1.160708
  39 H     1.0000    0     1.008    4.802153   -9.571765    1.421754
  40 H     1.0000    0     1.008    6.387785   -7.650405   -0.807537
  41 N     7.0000    0    14.007   -1.643287    3.494198   -0.181829
  42 C     6.0000    0    12.011   -3.051511    4.853365   -2.132518
  43 C     6.0000    0    12.011   -0.774202    5.080245    1.913745
  44 S    16.0000    0    32.060    6.038147    2.854318    3.976456
  45 C     6.0000    0    12.011    0.848260    7.266356    0.927988
  46 H     1.0000    0     1.008    0.324164    4.008411    3.325918
  47 H     1.0000    0     1.008   -2.448518    5.846378    2.929624
  48 C     6.0000    0    12.011   -0.638633    8.788871   -1.031205
  49 H     1.0000    0     1.008    2.587300    6.488375    0.039892
  50 H     1.0000    0     1.008    1.418561    8.509512    2.521216
  51 C     6.0000    0    12.011   -1.461363    7.037831   -3.181278
  52 H     1.0000    0     1.008    0.557923   10.338805   -1.788815
  53 H     1.0000    0     1.008   -2.333906    9.643008   -0.127084
  54 H     1.0000    0     1.008    0.246061    6.255164   -4.125763
  55 H     1.0000    0     1.008   -2.570387    8.112368   -4.603864
  56 H     1.0000    0     1.008   -4.839910    5.610767   -1.326153
  57 H     1.0000    0     1.008   -3.519502    3.567331   -3.728373

--------------------------------
INTERNAL COORDINATES (ANGSTROEM)
--------------------------------
 C      0   0   0     0.000000000000     0.00000000     0.00000000
 C      1   0   0     1.392641353149     0.00000000     0.00000000
 C      2   1   0     1.399884521059   122.31558617     0.00000000
 C      3   2   1     1.413936260020   117.60888926     1.65903935
 C      4   3   2     1.399214233954   119.92699434   357.97879345
 C      1   2   3     1.387783719641   119.32571448   359.95568831
 H      1   2   3     1.085678787165   120.10571437   178.91134774
 H      2   1   3     1.086457132150   118.60293862   181.72734511
 H      5   4   3     1.084785311940   119.81187759   180.36832203
 H      6   1   2     1.086067963389   120.55042835   179.44749986
 B      3   2   1     1.599011380260   122.17085273   184.28509840
 H     11   3   2     1.375887346951    99.89010561    42.73994642
 C     11   3   2     1.615883166692   117.38614563   282.10325155
 C     13  11   3     1.379181440457   128.58700246    20.72659648
 C     14  13  11     1.417748409345   114.27214913   194.14037998
 H     14  13  11     1.083811299258   121.50957255    14.58803390
 C     15  14  13     1.369641037462   112.00793482     0.62348729
 H     15  14  13     1.082933617310   124.37500155   180.07491286
 H     17  15  14     1.081466863524   127.45401031   179.35222192
 H     11   3   2     1.199065751408   117.66726593   143.47865199
 B     12  11   3     1.264147066365    98.88880057   238.12445162
 O     21  12  11     1.364818006549   115.19682711   248.71020404
 O     21  12  11     1.371319779410   118.02933859   108.17887572
 C     22  21  12     1.447749331100   105.81286622   203.31151921
 C     23  21  12     1.447188912375   106.34130636   136.31634065
 C     24  22  21     1.521394502521   108.21026003   147.01772757
 H     26  24  22     1.092625207516   109.61090619    66.20585097
 H     26  24  22     1.094589162654   110.40103794   185.26316430
 H     26  24  22     1.090856991819   111.64317989   306.38148601
 C     24  22  21     1.528570747888   107.66558449   266.02642098
 H     30  24  22     1.092249420142   108.74733149   303.95388160
 H     30  24  22     1.092774497781   111.83983942    63.11932788
 H     30  24  22     1.093555273774   110.97486868   184.60481330
 C     25  23  21     1.521403611045   108.58713443   141.63256080
 H     34  25  23     1.092902650056   109.69479064    66.09372143
 H     34  25  23     1.094433197002   110.47322483   185.25203911
 H     34  25  23     1.091001938449   111.34240606   306.30476551
 C     25  23  21     1.528370892977   106.42391796   260.57417185
 H     38  25  23     1.093442154574   111.61915384   183.91384016
 H     38  25  23     1.092532706421   108.71845583   303.61026067
 H     38  25  23     1.093256143225   111.07351206    62.38655817
 N      4   3   2     1.421399554875   119.11173478   178.73397990
 C     42   4   3     1.462255082125   118.44561897   145.79827936
 C     42   4   3     1.464806555454   116.70849542   288.72502203
 S     17  15  14     1.712903683632   111.80384938   359.95719956
 C     44  42   4     1.532164978095   110.53681589   159.09042190
 H     44  42   4     1.103619115954   112.55048546    37.11469664
 H     44  42   4     1.112821348151   108.93433888   279.57652060
 C     46  44  42     1.530716501806   109.87438625    56.05077926
 H     46  44  42     1.112308197084   109.14769517   295.95965894
 H     46  44  42     1.111153201228   109.93058232   177.23534135
 C     49  46  44     1.530579531387   109.33236118   302.43452184
 H     49  46  44     1.111022070123   109.87762300   181.71181342
 H     49  46  44     1.112649182672   109.69546547    62.70274919
 H     52  49  46     1.112521141282   109.16675510   297.95482549
 H     52  49  46     1.111059377936   110.12562964   179.09416634
 H     43  42   4     1.112814974962   109.86876909    79.33798420
 H     43  42   4     1.112487561369   110.39151285   319.35753246

---------------------------
INTERNAL COORDINATES (A.U.)
---------------------------
 C      0   0   0     0.000000000000     0.00000000     0.00000000
 C      1   0   0     2.631710760225     0.00000000     0.00000000
 C      2   1   0     2.645398363917   122.31558617     0.00000000
 C      3   2   1     2.671952302259   117.60888926     1.65903935
 C      4   3   2     2.644131704858   119.92699434   357.97879345
 C      1   2   3     2.622531163236   119.32571448   359.95568831
 H      1   2   3     2.051635577150   120.10571437   178.91134774
 H      2   1   3     2.053106436009   118.60293862   181.72734511
 H      5   4   3     2.049947153666   119.81187759   180.36832203
 H      6   1   2     2.052371013631   120.55042835   179.44749986
 B      3   2   1     3.021693593714   122.17085273   184.28509840
 H     11   3   2     2.600050276865    99.89010561    42.73994642
 C     11   3   2     3.053576649462   117.38614563   282.10325155
 C     13  11   3     2.606275211450   128.58700246    20.72659648
 C     14  13  11     2.679156220464   114.27214913   194.14037998
 H     14  13  11     2.048106536448   121.50957255    14.58803390
 C     15  14  13     2.588246462583   112.00793482     0.62348729
 H     15  14  13     2.046447957932   124.37500155   180.07491286
 H     17  15  14     2.043676194971   127.45401031   179.35222192
 H     11   3   2     2.265905886726   117.66726593   143.47865199
 B     12  11   3     2.388891748430    98.88880057   238.12445162
 O     21  12  11     2.579132255022   115.19682711   248.71020404
 O     21  12  11     2.591418825113   118.02933859   108.17887572
 C     22  21  12     2.735849746346   105.81286622   203.31151921
 C     23  21  12     2.734790708435   106.34130636   136.31634065
 C     24  22  21     2.875018951417   108.21026003   147.01772757
 H     26  24  22     2.064762409225   109.61090619    66.20585097
 H     26  24  22     2.068473746575   110.40103794   185.26316430
 H     26  24  22     2.061420965811   111.64317989   306.38148601
 C     24  22  21     2.888580089832   107.66558449   266.02642098
 H     30  24  22     2.064052274002   108.74733149   303.95388160
 H     30  24  22     2.065044526939   111.83983942    63.11932788
 H     30  24  22     2.066519979739   110.97486868   184.60481330
 C     25  23  21     2.875036164033   108.58713443   141.63256080
 H     34  25  23     2.065286699643   109.69479064    66.09372143
 H     34  25  23     2.068179014206   110.47322483   185.25203911
 H     34  25  23     2.061694875246   111.34240606   306.30476551
 C     25  23  21     2.888202418784   106.42391796   260.57417185
 H     38  25  23     2.066306215430   111.61915384   183.91384016
 H     38  25  23     2.064587607488   108.71845583   303.61026067
 H     38  25  23     2.065954704923   111.07351206    62.38655817
 N      4   3   2     2.686055885592   119.11173478   178.73397990
 C     42   4   3     2.763261643151   118.44561897   145.79827936
 C     42   4   3     2.768083228980   116.70849542   288.72502203
 S     17  15  14     3.236918855849   111.80384938   359.95719956
 C     44  42   4     2.895372200584   110.53681589   159.09042190
 H     44  42   4     2.085537885314   112.55048546    37.11469664
 H     44  42   4     2.102927583986   108.93433888   279.57652060
 C     46  44  42     2.892634977087   109.87438625    56.05077926
 H     46  44  42     2.101957869004   109.14769517   295.95965894
 H     46  44  42     2.099775243151   109.93058232   177.23534135
 C     49  46  44     2.892376140506   109.33236118   302.43452184
 H     49  46  44     2.099527441274   109.87762300   181.71181342
 H     49  46  44     2.102602238381   109.69546547    62.70274919
 H     52  49  46     2.102360275221   109.16675510   297.95482549
 H     52  49  46     2.099597942824   110.12562964   179.09416634
 H     43  42   4     2.102915540405   109.86876909    79.33798420
 H     43  42   4     2.102296818381   110.39151285   319.35753246

---------------------
BASIS SET INFORMATION
---------------------
There are 6 groups of distinct atoms

 Group   1 Type C   : 10s4p1d contracted to 3s2p1d pattern {631/31/1}
 Group   2 Type H   : 4s1p contracted to 2s1p pattern {31/1}
 Group   3 Type B   : 10s4p1d contracted to 3s2p1d pattern {631/31/1}
 Group   4 Type O   : 10s4p1d contracted to 3s2p1d pattern {631/31/1}
 Group   5 Type N   : 10s4p1d contracted to 3s2p1d pattern {631/31/1}
 Group   6 Type S   : 16s10p1d contracted to 4s3p1d pattern {6631/631/1}

Atom   0C    basis set group =>   1
Atom   1C    basis set group =>   1
Atom   2C    basis set group =>   1
Atom   3C    basis set group =>   1
Atom   4C    basis set group =>   1
Atom   5C    basis set group =>   1
Atom   6H    basis set group =>   2
Atom   7H    basis set group =>   2
Atom   8H    basis set group =>   2
Atom   9H    basis set group =>   2
Atom  10B    basis set group =>   3
Atom  11H    basis set group =>   2
Atom  12C    basis set group =>   1
Atom  13C    basis set group =>   1
Atom  14C    basis set group =>   1
Atom  15H    basis set group =>   2
Atom  16C    basis set group =>   1
Atom  17H    basis set group =>   2
Atom  18H    basis set group =>   2
Atom  19H    basis set group =>   2
Atom  20B    basis set group =>   3
Atom  21O    basis set group =>   4
Atom  22O    basis set group =>   4
Atom  23C    basis set group =>   1
Atom  24C    basis set group =>   1
Atom  25C    basis set group =>   1
Atom  26H    basis set group =>   2
Atom  27H    basis set group =>   2
Atom  28H    basis set group =>   2
Atom  29C    basis set group =>   1
Atom  30H    basis set group =>   2
Atom  31H    basis set group =>   2
Atom  32H    basis set group =>   2
Atom  33C    basis set group =>   1
Atom  34H    basis set group =>   2
Atom  35H    basis set group =>   2
Atom  36H    basis set group =>   2
Atom  37C    basis set group =>   1
Atom  38H    basis set group =>   2
Atom  39H    basis set group =>   2
Atom  40H    basis set group =>   2
Atom  41N    basis set group =>   5
Atom  42C    basis set group =>   1
Atom  43C    basis set group =>   1
Atom  44S    basis set group =>   6
Atom  45C    basis set group =>   1
Atom  46H    basis set group =>   2
Atom  47H    basis set group =>   2
Atom  48C    basis set group =>   1
Atom  49H    basis set group =>   2
Atom  50H    basis set group =>   2
Atom  51C    basis set group =>   1
Atom  52H    basis set group =>   2
Atom  53H    basis set group =>   2
Atom  54H    basis set group =>   2
Atom  55H    basis set group =>   2
Atom  56H    basis set group =>   2
Atom  57H    basis set group =>   2
---------------------------------
AUXILIARY/J BASIS SET INFORMATION
---------------------------------
There are 6 groups of distinct atoms

 Group   1 Type C   : 12s5p4d2f1g contracted to 6s4p3d1f1g pattern {711111/2111/211/2/1}
 Group   2 Type H   : 5s2p1d contracted to 3s1p1d pattern {311/2/1}
 Group   3 Type B   : 12s5p4d2f1g contracted to 6s4p3d1f1g pattern {711111/2111/211/2/1}
 Group   4 Type O   : 12s5p4d2f1g contracted to 6s4p3d1f1g pattern {711111/2111/211/2/1}
 Group   5 Type N   : 12s5p4d2f1g contracted to 6s4p3d1f1g pattern {711111/2111/211/2/1}
 Group   6 Type S   : 14s5p5d2f1g contracted to 8s4p3d1f1g pattern {71111111/2111/311/2/1}

Atom   0C    basis set group =>   1
Atom   1C    basis set group =>   1
Atom   2C    basis set group =>   1
Atom   3C    basis set group =>   1
Atom   4C    basis set group =>   1
Atom   5C    basis set group =>   1
Atom   6H    basis set group =>   2
Atom   7H    basis set group =>   2
Atom   8H    basis set group =>   2
Atom   9H    basis set group =>   2
Atom  10B    basis set group =>   3
Atom  11H    basis set group =>   2
Atom  12C    basis set group =>   1
Atom  13C    basis set group =>   1
Atom  14C    basis set group =>   1
Atom  15H    basis set group =>   2
Atom  16C    basis set group =>   1
Atom  17H    basis set group =>   2
Atom  18H    basis set group =>   2
Atom  19H    basis set group =>   2
Atom  20B    basis set group =>   3
Atom  21O    basis set group =>   4
Atom  22O    basis set group =>   4
Atom  23C    basis set group =>   1
Atom  24C    basis set group =>   1
Atom  25C    basis set group =>   1
Atom  26H    basis set group =>   2
Atom  27H    basis set group =>   2
Atom  28H    basis set group =>   2
Atom  29C    basis set group =>   1
Atom  30H    basis set group =>   2
Atom  31H    basis set group =>   2
Atom  32H    basis set group =>   2
Atom  33C    basis set group =>   1
Atom  34H    basis set group =>   2
Atom  35H    basis set group =>   2
Atom  36H    basis set group =>   2
Atom  37C    basis set group =>   1
Atom  38H    basis set group =>   2
Atom  39H    basis set group =>   2
Atom  40H    basis set group =>   2
Atom  41N    basis set group =>   5
Atom  42C    basis set group =>   1
Atom  43C    basis set group =>   1
Atom  44S    basis set group =>   6
Atom  45C    basis set group =>   1
Atom  46H    basis set group =>   2
Atom  47H    basis set group =>   2
Atom  48C    basis set group =>   1
Atom  49H    basis set group =>   2
Atom  50H    basis set group =>   2
Atom  51C    basis set group =>   1
Atom  52H    basis set group =>   2
Atom  53H    basis set group =>   2
Atom  54H    basis set group =>   2
Atom  55H    basis set group =>   2
Atom  56H    basis set group =>   2
Atom  57H    basis set group =>   2


           ************************************************************
           *        Program running with 10 parallel MPI-processes    *
           *              working on a common directory               *
           ************************************************************
------------------------------------------------------------------------------
                             ORCA STARTUP CALCULATIONS
                           -- RI-GTO INTEGRALS CHOSEN --
------------------------------------------------------------------------------
------------------------------------------------------------------------------
                   ___                                                        
                  /   \      - P O W E R E D   B Y -                         
                 /     \                                                     
                 |  |  |   _    _      __       _____    __    __             
                 |  |  |  | |  | |    /  \     |  _  \  |  |  /  |          
                  \  \/   | |  | |   /    \    | | | |  |  | /  /          
                 / \  \   | |__| |  /  /\  \   | |_| |  |  |/  /          
                |  |  |   |  __  | /  /__\  \  |    /   |      \           
                |  |  |   | |  | | |   __   |  |    \   |  |\   \          
                \     /   | |  | | |  |  |  |  | |\  \  |  | \   \       
                 \___/    |_|  |_| |__|  |__|  |_| \__\ |__|  \__/        
                                                                              
                      - O R C A' S   B I G   F R I E N D -                    
                                      &                                       
                       - I N T E G R A L  F E E D E R -                       
                                                                              
 v1 FN, 2020, v2 2021, v3 2022-2024                                           
------------------------------------------------------------------------------


----------------------
SHARK INTEGRAL PACKAGE
----------------------

Number of atoms                             ...     58
Number of basis functions                   ...    537
Number of shells                            ...    257
Maximum angular momentum                    ...      2
Integral batch strategy                     ... SHARK/LIBINT Hybrid
RI-J (if used) integral strategy            ... SPLIT-RIJ (Revised 2003 algorithm where possible)
Printlevel                                  ...      1
Contraction scheme used                     ... SEGMENTED contraction
Prescreening option                         ... SCHWARTZ
   Thresh                                   ... 2.500e-11
   Tcut                                     ... 2.500e-12
   Tpresel                                  ... 2.500e-12 
Coulomb Range Separation                    ... NOT USED
Exchange Range Separation                   ... Long Range
   Mu parameter                             ... 2.500e-01
   Scaling (regular/separated)              ... 1.957e-01 8.043e-01
Robust (split-)RI terms used:
  metric    (central integrals)             ... YES
  density   (r.h.s.  integrals)             ... YES
  potential (l.h.s.  integrals)             ... YES
Multipole approximations                    ... NOT USED
Finite Nucleus Model                        ... NOT USED
CABS basis                                  ... NOT available
Auxiliary Coulomb fitting basis             ... AVAILABLE
   # of basis functions in Aux-J            ...   1666
   # of shells in Aux-J                     ...    562
   Maximum angular momentum in Aux-J        ...      4
Auxiliary J/K fitting basis                 ... NOT available
Auxiliary Correlation fitting basis         ... NOT available
Auxiliary 'external' fitting basis          ... NOT available

Checking pre-screening integrals            ... done (  0.0 sec) Dimension = 257
   => SHARK Basis and OBASIS are compatible. Storing Pre-screening
Shell pair information
Shell pair cut-off parameter TPreSel        ...   2.5e-12
Total number of shell pairs                 ...     33153
Shell pairs after pre-screening             ...     21112
Total number of primitive shell pairs       ...    164568
Primitive shell pairs kept                  ...     58919
          la=0 lb=0:   6680 shell pairs
          la=1 lb=0:   8016 shell pairs
          la=1 lb=1:   2453 shell pairs
          la=2 lb=0:   2338 shell pairs
          la=2 lb=1:   1413 shell pairs
          la=2 lb=2:    212 shell pairs

Checking whether 4 symmetric matrices of dimension 537 fit in memory
:Max Core in MB      =   3072.00
 MB in use           =     25.39
 MB left             =   3046.61
 MB needed           =      4.41
 Data fit in memory  = YES
Calculating RI/J V-Matrix + Cholesky decomp.... done (  0.1 sec)
Calculating Nuclear repulsion               ... done (  0.0 sec) ENN=   2771.108612015474 Eh

Diagonalization of the overlap matrix:
Smallest eigenvalue                        ... 4.146e-04
Time for diagonalization                   ...    0.018 sec
Threshold for overlap eigenvalues          ... 1.000e-07
Number of eigenvalues below threshold      ... 0
Time for construction of square roots      ...    0.003 sec
Total time needed                          ...    0.024 sec

-------------------
DFT GRID GENERATION
-------------------

General Integration Accuracy     IntAcc      ... 4.388
Radial Grid Type                 RadialGrid  ... OptM3 with GC (2021)
Angular Grid (max. ang.)         AngularGrid ... 4 (Lebedev-302)
Angular grid pruning method      GridPruning ... 4 (adaptive)
Weight generation scheme         WeightScheme... mBecke (2022)
Basis function cutoff            BFCut       ... 1.0000e-11
Integration weight cutoff        WCut        ... 1.0000e-14
Partially contracted basis set               ... off
Rotationally invariant grid construction     ... off
Angular grids for H and He will be reduced by one unit

Total number of grid points                  ...   258588
Total number of batches                      ...     4069
Average number of points per batch           ...       63
Average number of grid points per atom       ...     4458

--------------------
COSX GRID GENERATION
--------------------

GRIDX 1
-------
General Integration Accuracy     IntAcc      ... 3.816
Radial Grid Type                 RadialGrid  ... OptM3 with GC (2021)
Angular Grid (max. ang.)         AngularGrid ... 1 (Lebedev-50)
Angular grid pruning method      GridPruning ... 4 (adaptive)
Weight generation scheme         WeightScheme... mBecke (2022)
Basis function cutoff            BFCut       ... 1.0000e-11
Integration weight cutoff        WCut        ... 1.0000e-14
Partially contracted basis set               ... on
Rotationally invariant grid construction     ... off
Angular grids for H and He will be reduced by one unit

Total number of grid points                  ...    33833
Total number of batches                      ...      298
Average number of points per batch           ...      113
Average number of grid points per atom       ...      583
UseSFitting                                  ... on

GRIDX 2
-------
General Integration Accuracy     IntAcc      ... 4.020
Radial Grid Type                 RadialGrid  ... OptM3 with GC (2021)
Angular Grid (max. ang.)         AngularGrid ... 2 (Lebedev-110)
Angular grid pruning method      GridPruning ... 4 (adaptive)
Weight generation scheme         WeightScheme... mBecke (2022)
Basis function cutoff            BFCut       ... 1.0000e-11
Integration weight cutoff        WCut        ... 1.0000e-14
Partially contracted basis set               ... on
Rotationally invariant grid construction     ... off
Angular grids for H and He will be reduced by one unit

Total number of grid points                  ...    68870
Total number of batches                      ...      569
Average number of points per batch           ...      121
Average number of grid points per atom       ...     1187
UseSFitting                                  ... on

GRIDX 3
-------
General Integration Accuracy     IntAcc      ... 4.338
Radial Grid Type                 RadialGrid  ... OptM3 with GC (2021)
Angular Grid (max. ang.)         AngularGrid ... 3 (Lebedev-194)
Angular grid pruning method      GridPruning ... 4 (adaptive)
Weight generation scheme         WeightScheme... mBecke (2022)
Basis function cutoff            BFCut       ... 1.0000e-11
Integration weight cutoff        WCut        ... 1.0000e-14
Partially contracted basis set               ... on
Rotationally invariant grid construction     ... off
Angular grids for H and He will be reduced by one unit

Total number of grid points                  ...   150132
Total number of batches                      ...     1204
Average number of points per batch           ...      124
Average number of grid points per atom       ...     2588
UseSFitting                                  ... on
Grids setup in   2.1 sec
Initializing property integral containers    ... done (  0.0 sec)

SHARK setup successfully completed in   2.3 seconds

Maximum memory used throughout the entire STARTUP-calculation: 73.1 MB


           ************************************************************
           *        Program running with 10 parallel MPI-processes    *
           *              working on a common directory               *
           ************************************************************
-------------------------------------------------------------------------------
                                 ORCA GUESS
                   Start orbitals & Density for SCF / CASSCF
-------------------------------------------------------------------------------

------------
SCF SETTINGS
------------
Hamiltonian:
 Density Functional     Method          .... DFT(GTOs)
 Exchange Functional    Exchange        .... WB97X-D3
 Correlation Functional Correlation     .... WB97X-D3
 Gradients option       PostSCFGGA      .... off
 Hybrid DFT is turned on
   Fraction HF Exchange ScalHFX         ....  0.195728
   Scaling of DF-GGA-X  ScalDFX         ....  0.000000
   Scaling of DF-GGA-C  ScalDFC         ....  1.000000
   Scaling of DF-LDA-C  ScalLDAC        ....  1.000000
   Perturbative correction              ....  0.000000
 Long-range corrected/Screened/Range-Separated Hybrid DFT is turned on
   Amount of maximum screened exact exchange              ....  0.804272
   Range separation parameter mu (erf(mu*r12)/r12)        ....  0.250000
 RI-approximation to the Coulomb term is turned on
   Number of AuxJ basis functions       .... 1666
   RIJ-COSX (HFX calculated with COS-X)).... on


General Settings:
 Integral files         IntName         .... input
 Hartree-Fock type      HFTyp           .... RHF
 Total Charge           Charge          ....    0
 Multiplicity           Mult            ....    1
 Number of Electrons    NEL             ....  206
 Basis Dimension        Dim             ....  537
 Nuclear Repulsion      ENuc            ....   2771.1086120155 Eh

Convergence Acceleration:
 AO-DIIS                CNVDIIS         .... on
   Start iteration      DIISMaxIt       ....     0
   Startup error        DIISStart       ....  0.200000
   # of expansion vecs  DIISMaxEq       ....     5
   Bias factor          DIISBfac        ....   1.050
   Max. coefficient     DIISMaxC        ....  10.000
 MO-DIIS                CNVKDIIS        .... off
 Trust-Rad. Augm. Hess. CNVTRAH         .... auto
   Auto Start mean grad. ratio tolernc. ....  1.125000
   Auto Start start iteration           ....    50
   Auto Start num. interpolation iter.  ....    10
   Max. Number of Micro iterations      ....    24
   Max. Number of Macro iterations      .... Maxiter - #DIIS iter
   Number of Davidson start vectors     ....     2
   Converg. threshold    (grad. norm)   ....   1.000e-05
   Grad. Scal. Fac. for Micro threshold ....   0.100
   Minimum threshold for Micro iter.    ....   1.000e-02
   NR start threshold (gradient norm)   ....   1.000e-04
   Initial trust radius                 ....   0.400
   Minimum AH scaling param. (alpha)    ....   1.000
   Maximum AH scaling param. (alpha)    .... 1000.000
   Quad. conv. algorithm                .... NR
   White noise on init. David. guess    .... on
   Maximum white noise                  ....   0.010
   Pseudo random numbers                .... off
   Inactive MOs                         .... canonical
   Orbital update algorithm             .... Taylor
   Preconditioner                       .... Diag
   Full preconditioner red. dimension   ....   250
 SOSCF                 CNVSOSCF           .... on
   Start iteration     SOSCFMaxIt         ....   150
   Startup grad/error  SOSCFStart         ....  0.001000
   Hessian update      SOSCFHessUp        .... L-BFGS
   Autom. constraints  SOSCFAutoConstrain .... off
 Level Shifting         CNVShift        .... on
   Level shift para.    LevelShift      ....    0.2500
   Turn off err/grad.   ShiftErr        ....    0.0000
 Zerner damping         CNVZerner       .... off
 Static damping         CNVDamp         .... on
   Fraction old density DampFac         ....    0.8500
   Max. Damping (<1)    DampMax         ....    0.9800
   Min. Damping (>=0)   DampMin         ....    0.0000
   Turn off err/grad.   DampErr         ....    0.0300

SCF Procedure:
 Maximum # iterations   MaxIter         ....   125
 SCF integral mode      SCFMode         .... Direct
   Integral package                     .... SHARK and LIBINT hybrid scheme
 Reset frequency        DirectResetFreq ....    20
 Integral Threshold     Thresh          ....  2.500e-11 Eh
 Primitive CutOff       TCut            ....  2.500e-12 Eh

Convergence Tolerance:
 Convergence Check Mode ConvCheckMode   .... Total+1el-Energy
 Convergence forced     ConvForced      .... 0
 Energy Change          TolE            ....  1.000e-08 Eh
 1-El. energy change                    ....  1.000e-05 Eh
 Orbital Gradient       TolG            ....  1.000e-05
 Orbital Rotation angle TolX            ....  1.000e-05
 DIIS Error             TolErr          ....  5.000e-07

------------------------------
INITIAL GUESS: MODEL POTENTIAL
------------------------------
Loading Hartree-Fock densities                     ... done
Calculating cut-offs                               ... done
Initializing the effective Hamiltonian             ... done
Setting up the integral package (SHARK)            ... done
Starting the Coulomb interaction                   ... done (   0.1 sec)
Making the grid                                    ... done (   0.3 sec)
Mapping shells                                     ... done
Starting the XC term evaluation                    ... done (   0.1 sec)
  promolecular density results
     # of electrons  =    205.989385401
     EX              =   -172.041983724
     EC              =     -6.981047069
     EX+EC           =   -179.023030792
Transforming the Hamiltonian                       ... done (   0.0 sec)
Diagonalizing the Hamiltonian                      ... done (   0.0 sec)
Back transforming the eigenvectors                 ... done (   0.0 sec)
Now organizing SCF variables                       ... done
                      ------------------
                      INITIAL GUESS DONE (   0.5 sec)
                      ------------------
             **** ENERGY FILE WAS UPDATED (input.en.tmp) ****
Finished Guess after   0.7 sec
Maximum memory used throughout the entire GUESS-calculation: 33.3 MB


           ************************************************************
           *        Program running with 10 parallel MPI-processes    *
           *              working on a common directory               *
           ************************************************************

-------------------------------------------------------------------------------------------
                                      ORCA LEAN-SCF
                              memory conserving SCF solver
-------------------------------------------------------------------------------------------

----------------------------------------D-I-I-S--------------------------------------------
Iteration    Energy (Eh)           Delta-E    RMSDP     MaxDP     DIISErr   Damp  Time(sec)
-------------------------------------------------------------------------------------------
               ***  Starting incremental Fock matrix formation  ***
    1    -1471.1032444747793306     0.00e+00  2.14e-03  2.93e-02  1.82e-01  0.850   5.4
    2    -1471.2535860276443600    -1.50e-01  2.13e-03  2.85e-02  1.37e-01  0.850   2.4
                               ***Turning on AO-DIIS***
[...]
159:   3165.37   0.000181    0.92  0.000018  ( 0.003369  0.002342 -0.001019)
160:   3166.71   0.001721    8.70  0.000170  ( 0.011140  0.005146 -0.004358)
161:   3170.81   0.001105    5.58  0.000109  ( 0.000758 -0.007063  0.007633)
162:   3172.17   0.004088   20.66  0.000402  ( 0.009797 -0.015045  0.008936)
163:   3175.25   0.006658   33.65  0.000654  (-0.025410  0.002687  0.001196)
164:   3177.83   0.005151   26.03  0.000506  ( 0.006020  0.018662 -0.011012)
165:   3188.78   0.002960   14.96  0.000290  (-0.003474  0.015071  0.007107)
166:   3191.76   0.002767   13.98  0.000271  ( 0.007868  0.006043  0.013119)
167:   3203.38   0.000263    1.33  0.000026  ( 0.005003 -0.000391  0.000636)
168:   3213.38   0.001092    5.52  0.000106  ( 0.007920  0.006397 -0.001559)
169:   3224.90   0.004505   22.76  0.000436  (-0.001487  0.020312 -0.004595)
170:   3233.90   0.006090   30.78  0.000588  ( 0.022923  0.007614  0.002059)
171:   3247.33   0.000575    2.91  0.000055  ( 0.002007  0.003138  0.006432)
172:   3261.52   0.000681    3.44  0.000065  (-0.000615 -0.000161  0.008050)
173:   3287.76   0.000179    0.90  0.000017  (-0.000180 -0.000747  0.004048)

* The epsilon (eps) is given for a Dirac delta lineshape.
** The dipole moment derivative (T) already includes vibrational overlap.

The first frequency considered to be a vibration is 8
The total number of vibrations considered is 166


--------------------------
THERMOCHEMISTRY AT 298.15K
--------------------------

Temperature         ...   298.15 K
Pressure            ...     1.00 atm
Total Mass          ...   383.16 AMU
Quasi RRHO          ...     True
Cut-Off Frequency   ...     1.00 cm^-1

Throughout the following assumptions are being made:
  (1) The electronic state is orbitally nondegenerate
  (2) There are no thermally accessible electronically excited states
  (3) Hindered rotations indicated by low frequency modes are not
      treated as such but are treated as vibrations and this may
      cause some error
  (4) All equations used are the standard statistical mechanics
      equations for an ideal gas
  (5) All vibrations are strictly harmonic

freq.      34.62  E(vib)   ...       0.54 
freq.      41.46  E(vib)   ...       0.54 
freq.      46.86  E(vib)   ...       0.53 
freq.      60.36  E(vib)   ...       0.51 
freq.      70.68  E(vib)   ...       0.50 
freq.      79.04  E(vib)   ...       0.49 
freq.      91.75  E(vib)   ...       0.47 
freq.      95.07  E(vib)   ...       0.47 
freq.     126.77  E(vib)   ...       0.43 
freq.     137.77  E(vib)   ...       0.42 
freq.     167.19  E(vib)   ...       0.39 
freq.     171.30  E(vib)   ...       0.38 
freq.     194.50  E(vib)   ...       0.36 
freq.     218.60  E(vib)   ...       0.33 
freq.     228.49  E(vib)   ...       0.32 
freq.     247.29  E(vib)   ...       0.31 
freq.     249.51  E(vib)   ...       0.31 
freq.     267.66  E(vib)   ...       0.29 
freq.     290.97  E(vib)   ...       0.27 
freq.     301.40  E(vib)   ...       0.26 
freq.     304.73  E(vib)   ...       0.26 
freq.     315.60  E(vib)   ...       0.25 
freq.     329.31  E(vib)   ...       0.24 
freq.     331.61  E(vib)   ...       0.24 
freq.     345.85  E(vib)   ...       0.23 
freq.     370.95  E(vib)   ...       0.21 
freq.     378.79  E(vib)   ...       0.21 
freq.     388.84  E(vib)   ...       0.20 
freq.     402.50  E(vib)   ...       0.19 
freq.     441.98  E(vib)   ...       0.17 
freq.     461.47  E(vib)   ...       0.16 
freq.     466.74  E(vib)   ...       0.16 
freq.     470.46  E(vib)   ...       0.15 
freq.     494.29  E(vib)   ...       0.14 
freq.     504.28  E(vib)   ...       0.14 
freq.     527.86  E(vib)   ...       0.13 
freq.     541.96  E(vib)   ...       0.12 
freq.     557.16  E(vib)   ...       0.12 
freq.     574.73  E(vib)   ...       0.11 
freq.     587.25  E(vib)   ...       0.10 
freq.     589.32  E(vib)   ...       0.10 
freq.     608.90  E(vib)   ...       0.10 
freq.     615.68  E(vib)   ...       0.10 
freq.     638.24  E(vib)   ...       0.09 
freq.     681.55  E(vib)   ...       0.08 
freq.     711.93  E(vib)   ...       0.07 
freq.     746.38  E(vib)   ...       0.06 
freq.     749.32  E(vib)   ...       0.06 
freq.     763.27  E(vib)   ...       0.06 
freq.     770.33  E(vib)   ...       0.05 
freq.     779.85  E(vib)   ...       0.05 
freq.     790.31  E(vib)   ...       0.05 
freq.     796.96  E(vib)   ...       0.05 
freq.     821.44  E(vib)   ...       0.05 
freq.     833.99  E(vib)   ...       0.04 
freq.     864.84  E(vib)   ...       0.04 
freq.     876.37  E(vib)   ...       0.04 
freq.     884.69  E(vib)   ...       0.04 
freq.     887.72  E(vib)   ...       0.04 
freq.     895.11  E(vib)   ...       0.03 
freq.     900.34  E(vib)   ...       0.03 
freq.     902.12  E(vib)   ...       0.03 
freq.     941.02  E(vib)   ...       0.03 
freq.     950.13  E(vib)   ...       0.03 
freq.     951.74  E(vib)   ...       0.03 
freq.     952.77  E(vib)   ...       0.03 
freq.     963.75  E(vib)   ...       0.03 
freq.     978.93  E(vib)   ...       0.03 
freq.     986.24  E(vib)   ...       0.02 
freq.     988.87  E(vib)   ...       0.02 
freq.     996.35  E(vib)   ...       0.02 
freq.    1003.56  E(vib)   ...       0.02 
freq.    1012.26  E(vib)   ...       0.02 
freq.    1021.20  E(vib)   ...       0.02 
freq.    1029.32  E(vib)   ...       0.02 
freq.    1048.77  E(vib)   ...       0.02 
freq.    1056.86  E(vib)   ...       0.02 
freq.    1073.04  E(vib)   ...       0.02 
freq.    1079.55  E(vib)   ...       0.02 
freq.    1095.05  E(vib)   ...       0.02 
freq.    1097.58  E(vib)   ...       0.02 
freq.    1111.28  E(vib)   ...       0.01 
freq.    1127.75  E(vib)   ...       0.01 
freq.    1153.05  E(vib)   ...       0.01 
freq.    1160.50  E(vib)   ...       0.01 
freq.    1174.69  E(vib)   ...       0.01 
freq.    1179.83  E(vib)   ...       0.01 
freq.    1181.78  E(vib)   ...       0.01 
freq.    1188.85  E(vib)   ...       0.01 
freq.    1194.16  E(vib)   ...       0.01 
freq.    1210.06  E(vib)   ...       0.01 
freq.    1212.24  E(vib)   ...       0.01 
freq.    1234.22  E(vib)   ...       0.01 
freq.    1265.00  E(vib)   ...       0.01 
freq.    1268.58  E(vib)   ...       0.01 
freq.    1275.82  E(vib)   ...       0.01 
freq.    1282.99  E(vib)   ...       0.01 
freq.    1294.05  E(vib)   ...       0.01 
freq.    1303.33  E(vib)   ...       0.01 
freq.    1310.45  E(vib)   ...       0.01 
freq.    1318.26  E(vib)   ...       0.01 
freq.    1325.89  E(vib)   ...       0.01 
freq.    1338.57  E(vib)   ...       0.01 
freq.    1363.82  E(vib)   ...       0.01 
freq.    1383.18  E(vib)   ...       0.00 
freq.    1390.20  E(vib)   ...       0.00 
freq.    1399.87  E(vib)   ...       0.00 
freq.    1403.79  E(vib)   ...       0.00 
freq.    1405.41  E(vib)   ...       0.00 
freq.    1405.98  E(vib)   ...       0.00 
freq.    1424.57  E(vib)   ...       0.00 
freq.    1425.76  E(vib)   ...       0.00 
freq.    1433.74  E(vib)   ...       0.00 
freq.    1443.21  E(vib)   ...       0.00 
freq.    1443.61  E(vib)   ...       0.00 
freq.    1483.04  E(vib)   ...       0.00 
freq.    1486.21  E(vib)   ...       0.00 
freq.    1489.86  E(vib)   ...       0.00 
freq.    1495.79  E(vib)   ...       0.00 
freq.    1496.79  E(vib)   ...       0.00 
freq.    1498.13  E(vib)   ...       0.00 
freq.    1499.35  E(vib)   ...       0.00 
freq.    1502.95  E(vib)   ...       0.00 
freq.    1509.10  E(vib)   ...       0.00 
freq.    1510.03  E(vib)   ...       0.00 
freq.    1516.82  E(vib)   ...       0.00 
freq.    1521.85  E(vib)   ...       0.00 
freq.    1523.98  E(vib)   ...       0.00 
freq.    1525.83  E(vib)   ...       0.00 
freq.    1540.19  E(vib)   ...       0.00 
freq.    1549.39  E(vib)   ...       0.00 
freq.    1590.79  E(vib)   ...       0.00 
freq.    1661.24  E(vib)   ...       0.00 
freq.    1689.33  E(vib)   ...       0.00 
freq.    1758.71  E(vib)   ...       0.00 
freq.    2205.17  E(vib)   ...       0.00 
freq.    2617.56  E(vib)   ...       0.00 
freq.    2942.82  E(vib)   ...       0.00 
freq.    2950.68  E(vib)   ...       0.00 
freq.    3053.28  E(vib)   ...       0.00 
freq.    3073.71  E(vib)   ...       0.00 
freq.    3075.82  E(vib)   ...       0.00 
freq.    3079.90  E(vib)   ...       0.00 
freq.    3082.28  E(vib)   ...       0.00 
freq.    3084.62  E(vib)   ...       0.00 
freq.    3087.84  E(vib)   ...       0.00 
freq.    3114.97  E(vib)   ...       0.00 
freq.    3123.30  E(vib)   ...       0.00 
freq.    3127.19  E(vib)   ...       0.00 
freq.    3131.41  E(vib)   ...       0.00 
freq.    3152.35  E(vib)   ...       0.00 
freq.    3165.37  E(vib)   ...       0.00 
freq.    3166.71  E(vib)   ...       0.00 
freq.    3170.81  E(vib)   ...       0.00 
freq.    3172.17  E(vib)   ...       0.00 
freq.    3175.25  E(vib)   ...       0.00 
freq.    3177.83  E(vib)   ...       0.00 
freq.    3188.78  E(vib)   ...       0.00 
freq.    3191.76  E(vib)   ...       0.00 
freq.    3203.38  E(vib)   ...       0.00 
freq.    3213.38  E(vib)   ...       0.00 
freq.    3224.90  E(vib)   ...       0.00 
freq.    3233.90  E(vib)   ...       0.00 
freq.    3247.33  E(vib)   ...       0.00 
freq.    3261.52  E(vib)   ...       0.00 
freq.    3287.76  E(vib)   ...       0.00 

------------
INNER ENERGY
------------

The inner energy is: U= E(el) + E(ZPE) + E(vib) + E(rot) + E(trans)
    E(el)   - is the total energy from the electronic structure calculation
              = E(kin-el) + E(nuc-el) + E(el-el) + E(nuc-nuc)
    E(ZPE)  - the the zero temperature vibrational energy from the frequency calculation
    E(vib)  - the the finite temperature correction to E(ZPE) due to population
              of excited vibrational states
    E(rot)  - is the rotational thermal energy
    E(trans)- is the translational thermal energy

Summary of contributions to the inner energy U:
Electronic energy                ...  -1471.83030208 Eh
Zero point energy                ...      0.49919425 Eh     313.25 kcal/mol
Thermal vibrational correction   ...      0.02173777 Eh      13.64 kcal/mol
Thermal rotational correction    ...      0.00141627 Eh       0.89 kcal/mol
Thermal translational correction ...      0.00141627 Eh       0.89 kcal/mol
-----------------------------------------------------------------------
Total thermal energy                  -1471.30653752 Eh


Summary of corrections to the electronic energy:
(perhaps to be used in another calculation)
Total thermal correction                  0.02457031 Eh      15.42 kcal/mol
Non-thermal (ZPE) correction              0.49919425 Eh     313.25 kcal/mol
-----------------------------------------------------------------------
Total correction                          0.52376456 Eh     328.67 kcal/mol


--------
ENTHALPY
--------

The enthalpy is H = U + kB*T
                kB is Boltzmann's constant
Total thermal energy              ...  -1471.30653752 Eh 
Thermal Enthalpy correction       ...      0.00094421 Eh       0.59 kcal/mol
-----------------------------------------------------------------------
Total Enthalpy                    ...  -1471.30559331 Eh


Note: Only C1 symmetry has been detected, increase convergence thresholds 
      if your molecule has a higher symmetry. Symmetry factor of 1.0 is   
      used for the rotational entropy correction. 
 

Note: Rotational entropy computed according to Herzberg 
Infrared and Raman Spectra, Chapter V,1, Van Nostrand Reinhold, 1945 
Point Group:  C1, Symmetry Number:   1  
Rotational constants in cm-1:     0.009480     0.004211     0.003463 

Vibrational entropy computed according to the QRRHO of S. Grimme
Chem.Eur.J. 2012 18 9955 using a reference frequency of 100.0 cm-1


-------
ENTROPY
-------

The entropy contributions are T*S = T*(S(el)+S(vib)+S(rot)+S(trans))
     S(el)   - electronic entropy
     S(vib)  - vibrational entropy
     S(rot)  - rotational entropy
     S(trans)- translational entropy
The entropies will be listed as multiplied by the temperature to get
units of energy

Electronic entropy                ...      0.00000000 Eh      0.00 kcal/mol
Vibrational entropy               ...      0.03728658 Eh     23.40 kcal/mol
Rotational entropy                ...      0.01696714 Eh     10.65 kcal/mol
Translational entropy             ...      0.02077371 Eh     13.04 kcal/mol
-----------------------------------------------------------------------
Final entropy term                ...      0.07502742 Eh     47.08 kcal/mol

In case the symmetry of your molecule has not been determined correctly
or in case you have a reason to use a different symmetry number we print 
out the resulting rotational entropy values for sn=1,12:

 non-linear molecules -----------------------------------
|  sn= 1 | S(rot)=       0.01696714 Eh     10.65 kcal/mol|
|  sn= 2 | S(rot)=       0.01631268 Eh     10.24 kcal/mol|
|  sn= 3 | S(rot)=       0.01592985 Eh     10.00 kcal/mol|
|  sn= 4 | S(rot)=       0.01565823 Eh      9.83 kcal/mol|
|  sn= 5 | S(rot)=       0.01544754 Eh      9.69 kcal/mol|
|  sn= 6 | S(rot)=       0.01527539 Eh      9.59 kcal/mol|
|  sn= 7 | S(rot)=       0.01512985 Eh      9.49 kcal/mol|
|  sn= 8 | S(rot)=       0.01500377 Eh      9.41 kcal/mol|
|  sn= 9 | S(rot)=       0.01489256 Eh      9.35 kcal/mol|
|  sn=10 | S(rot)=       0.01479308 Eh      9.28 kcal/mol|
|  sn=11 | S(rot)=       0.01470309 Eh      9.23 kcal/mol|
|  sn=12 | S(rot)=       0.01462094 Eh      9.17 kcal/mol|
 linear molecules ---------------------------------------
|  Dinfh | S(rot)=       0.01067530 Eh      6.70 kcal/mol|
|  Cinfv | S(rot)=       0.01132975 Eh      7.11 kcal/mol|
 --------------------------------------------------------


-------------------
GIBBS FREE ENERGY
-------------------

The Gibbs free energy is G = H - T*S

Total enthalpy                    ...  -1471.30559331 Eh 
Total entropy correction          ...     -0.07502742 Eh    -47.08 kcal/mol
-----------------------------------------------------------------------
Final Gibbs free energy         ...  -1471.38062073 Eh

For completeness - the Gibbs free energy minus the electronic energy
G-E(el)                           ...      0.44968135 Eh    282.18 kcal/mol


Maximum memory used throughout the entire PROP-calculation: 444.2 MB

--------------------------------
SUGGESTED CITATIONS FOR THIS RUN
--------------------------------

Below you find a list of papers that are relevant to this ORCA run
We neither can nor want to force you to cite these papers, but we appreciate if you do
You receive ORCA, which is the product of decades of hard work by many enthusiastic individuals, for free
The only thing we kindly ask in return is that you cite our papers,
We deeply appreciate it, if you show your appreciation for ORCA by not just citing the generic ORCA reference.

Please note that relegating all ORCA citations to the supporting information does *not* help us.
SI sections are not indexed - citations you put there will not count into any citation statistics
But we need these citations in order to attract the funding resources that allow us to do what we are doing

Therefore, if you are a happy ORCA user, please consider citing a few of the papers listed below in the main body of your paper

In addition to the list printed below, the program has created the file input.bibtex that contains the list in bibtex format
You can import this file easily into all common literature databanks and citation aid programs


List of essential papers. We consider these as the minimum necessary citations

  1. Neese, F.
     Software update: the ORCA program system, version 6.0
     WIRES Comput. Molec. Sci. 2025 15(1), e70019
     doi.org/10.1002/wcms.7019

List of papers to cite with high priority. The work reported in these papers was absolutely
necessary for this run to complete.
Our perspective: the developers of density functionals and basis sets usually get cited in chemistry papers
Good! But without the algorithms to do something with them, the functionals or basis sets would not do anything.
Hence, in our opinion, the algorithm design and method developments papers are equally worthy of getting cited

  1. Neese, F.
     An improvement of the resolution of the identity approximation for the formation of the Coulomb matrix
     J. Comp. Chem. 2003 24(14), 1740-1747
     doi.org/10.1002/jcc.10318
  2. Neese, F.; Wennmohs, F.; Hansen, A.; Becker, U.
     Efficient, approximate and parallel Hartree-Fock and hybrid DFT calculations. A 'chain-of-spheres' algorithm for the Hartree-Fock exchange
     Chem. Phys. 2009 356(1-3), 98-109
     doi.org/10.1016/j.chemphys.2008.10.036
  3. Grimme, S.; Antony, J.; Ehrlich, S.; Krieg, H.
     A consistent and accurate ab initio parametrization of density functional dispersion correction (DFT-D) for the 94 elements H-Pu
     J. Chem. Phys. 2010 132 , 154104
     doi.org/10.1063/1.3382344
  4. Bykov, D.; Petrenko, T.; Izsak, R.; Kossmann, S.; Becker, U.; Valeev, E.; Neese, F.
     Efficient implementation of the analytic second derivatives of Hartree-Fock and hybrid DFT energies: a detailed analysis of different approximations
     Molec. Phys. 2015 113 , 1961-1977
     doi.org/10.1080/00268976.2015.1025114
  5. Helmich-Paris, B.; de Souza, B.; Neese, F.; Izsák, R.
     An improved chain of spheres for exchange algorithm
     J. Chem. Phys. 2021 155(10), 104109
     doi.org/10.1063/5.0058766
  6. Neese, F.
     The SHARK Integral Generation and Digestion System
     J. Comp. Chem. 2022 44(3), 381
     doi.org/10.1002/jcc.26942

List of suggested additional citations. These are papers that are important in the 'surrounding' of 
of this run, or papers that preceded the highly important papers. If you like your results we are grateful for a citation.

  1. Izsak, R.; Neese, F.
     An overlap fitted chain of spheres exchange method
     J. Chem. Phys. 2011 135 , 144105
     doi.org/10.1063/1.3646921
  2. Izsak, R.; Hansen, A.; Neese, F.
     The resolution of identity and chain of spheres approximations for the LPNO-CCSD singles Fock term
     Molec. Phys. 2012 110 , 2413-2417
     doi.org/10.1080/00268976.2012.687466
  3. Neese, F.
     The ORCA program system
     WIRES Comput. Molec. Sci. 2012 2(1), 73-78
     doi.org/10.1002/wcms.81
  4. Izsak, R.; Neese, F.; Klopper, W.
     Robust fitting techniques in the chain of spheres approximation to the Fock exchange: The role of the complementary space
     J. Chem. Phys. 2013 139 , 
     doi.org/10.1063/1.4819264
  5. Neese, F.
     Software update: the ORCA program system, version 4.0
     WIRES Comput. Molec. Sci. 2018 8(1), 1-6
     doi.org/10.1002/wcms.1327
  6. Neese, F.; Wennmohs, F.; Becker, U.; Riplinger, C.
     The ORCA quantum chemistry program package
     J. Chem. Phys. 2020 152(22), 224108
     doi.org/10.1063/5.0004608
  7. Neese, F.
     Software update: The ORCA program system—Version 5.0
     WIRES Comput. Molec. Sci. 2022 12(1), e1606
     doi.org/10.1002/wcms.1606

List of optional additional citations

  1. Neese, F.
     Approximate second-order SCF convergence for spin unrestricted wavefunctions
     Chem. Phys. Lett. 2000 325(1-3), 93-98
     doi.org/10.1016/s0009-2614(00)00662-x

Timings for individual modules:

Sum of individual times          ...     1216.968 sec (=  20.283 min)
Startup calculation              ...       23.056 sec (=   0.384 min)   1.9 %
SCF iterations                   ...      377.615 sec (=   6.294 min)  31.0 %
Property integrals               ...      180.963 sec (=   3.016 min)  14.9 %
SCF Response                     ...      258.358 sec (=   4.306 min)  21.2 %
Property calculations            ...      252.778 sec (=   4.213 min)  20.8 %
SCF Gradient evaluation          ...      122.963 sec (=   2.049 min)  10.1 %
Geometry relaxation              ...        1.236 sec (=   0.021 min)   0.1 %
                             ****ORCA TERMINATED NORMALLY****
TOTAL RUN TIME: 0 days 0 hours 31 minutes 58 seconds 947 msec
