
                                 *****************
                                 * O   R   C   A *
                                 *****************

                                            #,                                       
                                            ###                                      
                                            ####                                     
                                            #####                                    
                                            ######                                   
                                           ########,                                 
                                     ,,################,,,,,                         
                               ,,#################################,,                 
                          ,,##########################################,,             
                       ,#########################################, ''#####,          
                    ,#############################################,,   '####,        
                  ,##################################################,,,,####,       
                ,###########''''           ''''###############################       
              ,#####''   ,,,,##########,,,,          '''####'''          '####       
            ,##' ,,,,###########################,,,                        '##       
           ' ,,###''''                  '''############,,,                           
         ,,##''                                '''############,,,,        ,,,,,,###''
      ,#''                                            '''#######################'''  
     '                                                          ''''####''''         
             ,#######,   #######,   ,#######,      ##                                
            ,#'     '#,  ##    ##  ,#'     '#,    #''#        ,####,    ,#,          
            ##       ##  ##   ,#'  ##            #'  '#       #'       ,# #          
            ##       ##  #######   ##           ,######,      #####,      #          
            '#,     ,#'  ##    ##  '#,     ,#' ,#      #,     #,   #      #          
             '#######'   ##     ##  '#######'  #'      '#     '####' #    #          



                #########################################################
                #                        -***-                          #
                #          Department of theory and spectroscopy        #
                #                                                       #
                #                      Frank Neese                      #
                #                                                       #
                #     Directorship, Architecture, Infrastructure        #
                #                    SHARK, DRIVERS                     #
                #        Core code/Algorithms in most modules           #
                #                                                       #
                #        Max Planck Institute fuer Kohlenforschung      #
                #                Kaiser Wilhelm Platz 1                 #
                #                 D-45470 Muelheim/Ruhr                 #
                #                      Germany                          #
                #                                                       #
                #                  All rights reserved                  #
                #                        -***-                          #
                #########################################################


                         Program Version 6.1.0  -  RELEASE   -
                                (GIT: $679e74b7b5$)
                          ($2025-06-10 18:02:51 +0200$)


 With contributions from (in alphabetic order):
[Max-Planck-Institut fuer Kohlenforschung]                               
  Daniel Aravena         : Magnetic Suceptibility                        
  Michael Atanasov       : Ab Initio Ligand Field Theory (pilot matlab implementation)
  Alexander A. Auer      : GIAO ZORA, VPT2 properties, NMR spectrum      
  Ute Becker             : All parallelization in ORCA, NUMFREQ, NUMCALC 
  Giovanni Bistoni       : ED, misc. LED, open-shell LED, HFLD           
  Dmytro Bykov           : pre 5.0 version of the SCF Hessian            
  Marcos Casanova-Páez   : Triplet and SCS-CIS(D). UHF-(DLPNO)-IP/EA/STEOM-CCSD. UHF-CVS-IP/STEOM-CCSD   
  Vijay G. Chilkuri      : MRCI spin determinant printing, contributions to CSF-ICE 
  Pauline Colinet        : FMM embedding                                 
  Dipayan Datta          : RHF DLPNO-CCSD density                        
  Achintya Kumar Dutta   : EOM-CC, STEOM-CC                              
  Nicolas Foglia         : Exact transition moments, OPA infrastructure, MCD improvements    
  Dmitry Ganyushin       : Spin-Orbit,Spin-Spin,Magnetic field MRCI      
  Miquel Garcia-Rates    : C-PCM and meta-GGA Hessian, CCSD/C-PCM, Gaussian charge scheme 
  Tiago L. C. Gouveia    : GS-ROHF, GS-ROCIS                             
  Yang Guo               : DLPNO-NEVPT2, F12-NEVPT2, CIM, IAO-localization        
  Andreas Hansen         : Spin unrestricted coupled pair/coupled cluster methods 
  Ingolf Harden          : AUTO-CI MPn and infrastructure                
  Benjamin Helmich-Paris : MC-RPA, TRAH-(SCF,CASSCF), AVAS, COSX integrals, SCF dyn. polar., MC-PDFT, srDFT 
  Lee Huntington         : MR-EOM, pCC                                   
  Robert Izsak           : Overlap fitted RIJCOSX, COSX-SCS-MP3, EOM     
  Riya Kayal             : Wick's Theorem for AUTO-CI, AUTO-CI UHF-CCSDT 
  Emily Kempfer          : AUTO-CI RHF CISDT and CCSDT, approximate NEVPT4
  Christian Kollmar      : KDIIS, OOCD, Brueckner-CCSD(T), CCSD density, CASPT2, CASPT2-K, improved NEVPT2 
  Axel Koslowski         : Symmetry handling                             
  Simone Kossmann        : meta-GGA functionals, TD-DFT gradient, OOMP2, (MP2 Hessian; deprecated post 5.0) 
  Lucas Lang             : DCDCAS, Hyperfine gauge corrections, ICE-SOC+SSC
  Marvin Lechner         : AUTO-CI (C++ implementation), FIC-MRCC        
  Spencer Leger          : CASSCF response                               
  Dagmar Lenk            : GEPOL surface, SMD, ORCA-2-JSON               
  Dimitrios Liakos       : Extrapolation schemes; Compound Job, Property file
  Dimitrios Manganas     : Further ROCIS development; embedding schemes. LFT, Crystal Embedding 
  Dimitrios Pantazis     : SARC Basis sets                               
  Anastasios Papadopoulos: AUTO-CI, single reference methods and gradients 
  Taras Petrenko         : pre 6.0 DFT Hessian and TD-DFT gradient,  ECA, NRVS 
  Petra Pikulova         : Analytic Raman intensities                    
  Peter Pinski           : DLPNO-MP2, DLPNO-MP2 Gradient                 
  Shashank Vittal Rao    : ES-AILFT, MagRelax                            
  Christoph Reimann      : Effective Core Potentials                     
  Marius Retegan         : Local ZFS, SOC                                
  Christoph Riplinger    : Optimizer, TS searches, QM/MM, DLPNO-CCSD(T), (RO)-DLPNO pert. Triples 
  Michael Roemelt        : Original ROCIS implementation, recursive CI coupling coefficients
  Masaaki Saitow         : Open-shell DLPNO-CCSD energy and density      
  Barbara Sandhoefer     : DKH picture change effects                    
  Yorick L. A. Schmerwitz: GMF and freeze-and-release deltaSCF, NEB S-IDPP initial path                    
  Kantharuban Sivalingam : CASSCF convergence/infrastructure, NEVPT2, NEVPT3, NEVPT4(SD), FIC-MRCI and CEPA variants
  Bernardo de Souza      : ESD, SOC TD-DFT                               
  Georgi L. Stoychev     : AutoAux, RI-MP2 NMR, DLPNO-MP2 response, X2C  
  Van Anh Tran           : RI-MP2 g-tensors                              
  Willem Van den Heuvel  : Paramagnetic NMR                              
  Zikuan Wang            : NOTCH, Electric field optimization            
  Frank Wennmohs         : Technical directorship and infrastructure     
  Hang Xu                : AUTO-CI-Response properties                   
                                                                         
[FACCTs GmbH]                                                            
  Markus Bursch, Nicolas Foglia, Miquel Garcia-Rates, Ingolf Harden, Hagen Neugebauer, Anastasios Papadopoulos, 
  Christoph Riplinger, Bernardo de Souza, Georgi L. Stoychev                                                    
                                                                 
  APM, various basis sets, CI-OPT, improved COSX, DLPNO-Multilevel,           
  DOCKER, DRACO, updates on ESD, Fragmentator, GOAT, IRC, LR-CPCM, L-BFGS, MBIS, meta-GGA TD-DFT gradient, ML-optimized integration grids, 
  MM, NACMEs, nearIR, NEB, NEB-TS, NL-DFT gradient (VV10), 2- and 3-layer-ONIOM, interface openCOSMO-RS, QMMM,   
  Crystal-QMMM, RESP, rigid body optimization, SF, symmetry and pop. for TD-DFT, various functionals, SOLVATOR                                   
                                                                         
[Other institutions]                                                     
  V. Asgeirsson          : NEB                                           
  Christoph Bannwarth    : sTDA-DFT, sTD-DFT, PBEh-3c, B97-3c, D3        
  Giovanni Bistoni       : ETS/NOCV, ADLD/ADEX, COVALED                  
  Martin Brehm           : Molecular dynamics                            
  Ronald Cardenas        : ETS/NOCV                                      
  Martina Colucci        : COVALED                                       
  Sebastian Ehlert       : rSCAN, r2SCAN, r2SCAN-3c, D4, dhf basis sets  
  Marvin Friede          : D4 for Fr, Ra, Ac-Lr                          
  Lars Goerigk           : TD-DFT with DH, B97 family of functionals     
  Stefan Grimme          : VdW corrections, initial TS optimization, DFT functionals, gCP, sTDA/sTD-DF 
  Waldemar Hujo          : DFT-NL                                        
  H. Jonsson             : NEB                                           
  Holger Kruse           : gCP                                           
  Marcel Mueller         : wB97X-3c, vDZP basis set                      
  Hagen Neugebauer       : wr2SCAN, Native XTB                           
  Gianluca Regni         : ADLD/ADEX                                     
  Tobias Risthaus        : pre 6.0 range-separated hybrid DFT and stability analysis
  Lukas Wittmann         : regularized MP2, r2SCAN double-hybrids, wr2SCAN        
                                                                         
We gratefully acknowledge several colleagues who have allowed us to      
interface, adapt or use parts of their codes:                            
  Ed Valeev, F. Pavosevic, A. Kumar             : LibInt (2-el integral package), F12 methods 
  Garnet Chan, S. Sharma, J. Yang, R. Olivares  : DMRG                   
  Ulf Ekstrom                                   : XCFun DFT Library      
  Mihaly Kallay                                 : mrcc  (arbitrary order and MRCC methods)
  Frank Weinhold                                : gennbo (NPA and NBO analysis)           
  Simon Mueller                                 : openCOSMO-RS                            
  Christopher J. Cramer and Donald G. Truhlar   : smd solvation model                     
  S Lehtola, MJT Oliveira, MAL Marques          : LibXC Library                           
  Liviu Ungur et al                             : ANISO software                          


 Your calculation uses the libint2 library for the computation of 2-el integrals
 For citations please refer to: http://libint.valeyev.net

 Your ORCA version has been built with support for libXC version: 7.0.0
 For citations please refer to: https://libxc.gitlab.io

 This ORCA versions uses:
   CBLAS   interface :  Fast vector & matrix operations
   LAPACKE interface :  Fast linear algebra routines
   SCALAPACK package :  Parallel linear algebra routines
   Shared memory     :  Shared parallel matrices


  ***********************************
  * Starting time: Wed Sep  3 11:24:31 2025
  * Host name:     Jacobs-MacBook-Pro.local
  * Process ID:    29566
  * Working dir.:  /Users/jacobmolinnielsen/Developer/FrustActivationProject/FRUST/dev/_e0ifd0
  ***********************************

NOTE: MaxCore=2048 MB was set to SCF,MP2,MDCI,CIPSI,MRCI,RASCI and CIS
      => If you want to overwrite this, your respective input block should be placed after the MaxCore statement
================================================================================

================================================================================
                                        WARNINGS
                       Please study these warnings very carefully!
================================================================================

WARNING: Gradients needed for Numerical Frequencies
  ===> : Setting RunTyp to EnGrad

WARNING: The environment variable RSH_COMMAND is not set!
  ===> : All Displacements for the Numerical Hessian or Gradient calculation
         will be started on localhost

Using external energy/gradient program given in input:
  "/Users/jacobmolinnielsen/Library/orca-external-tools/umaclient.sh"


WARNING: four-center integrals in TRAH must be done with SHARK!
  ===> : Turning Shark on


================================================================================
                                       INPUT FILE
================================================================================
NAME = input.inp
|  1> # Automatically generated ORCA input
|  2> 
|  3> # Number of cores
|  4> %pal nprocs 10 end
|  5> # RAM per core
|  6> %maxcore 2048
|  7> 
|  8> ! ExtOpt 
|  9> ! NumFreq 
| 10> 
| 11> %geom
| 12>   Calc_Hess  true
| 13>   NumHess    true
| 14>   Recalc_Hess 5
| 15>   MaxIter    300
| 16> end
| 17> 
| 18> %method
| 19>     ProgExt "/Users/jacobmolinnielsen/Library/orca-external-tools/umaclient.sh"
| 20>     Ext_Params "-b 127.0.0.1:59079"
| 21>     end
| 22>     %output
| 23>     Print[P_EXT_OUT] 1
| 24>     Print[P_EXT_GRAD] 1
| 25>     end
| 26> %Output
| 27>   JSONPropFile True
| 28> End
| 29> 
| 30> 
| 31> *xyz 0 1 
| 32> C        -2.40139100     -1.41855500      1.04028600
| 33> C        -1.13179700     -0.83928200      1.26419300
| 34> C        -0.00084700     -1.57489200      0.86164900
| 35> C        -0.09321600     -2.85625900      0.33462800
| 36> C        -1.34596100     -3.44047000      0.17354400
| 37> C        -2.48074500     -2.71672800      0.51199000
| 38> H         0.98247900     -1.12429600      0.97959400
| 39> H         0.80599000     -3.39428100      0.04637400
| 40> H        -1.44092600     -4.44219500     -0.23689000
| 41> H        -3.46439600     -3.14611100      0.34668900
| 42> N        -3.61141100     -0.70552700      1.30278400
| 43> B        -0.93003800      0.59038400      1.92979300
| 44> H         1.11025800      4.16146800      0.81893700
| 45> H         2.64403500      3.71926400      0.04143700
| 46> H         1.32736600      2.53585000      0.15908000
| 47> C         3.92574000      1.31770000      0.72506300
| 48> H         4.69035400      2.08877000      0.58447900
| 49> H         4.42813400      0.34832900      0.78231100
| 50> H         3.27242000      1.30738000     -0.14902300
| 51> C         4.03147400      1.35140100      3.22909900
| 52> H         4.36949300      0.31198600      3.24201900
| 53> H         4.91197800      2.00037000      3.21068100
| 54> H         3.47636100      1.53820600      4.15289400
| 55> C         0.01306500      0.44616100      3.67687400
| 56> C         0.18996900     -0.86700800      4.10343100
| 57> C        -0.27450300     -1.12420800      5.40642500
| 58> H        -1.84826400      1.26308400      2.28021600
| 59> H        -0.08788400      1.26200500      1.34482600
| 60> C         2.35107900      2.91599400      2.04986300
| 61> C         3.13965500      1.56123400      2.00462700
| 62> O         1.21147600      2.57327000      2.86324300
| 63> O         2.08325300      0.58211100      2.08846600
| 64> B         0.99948300      1.21736900      2.68353800
| 65> C         3.09006500      4.06265700      2.72438200
| 66> H         2.46305500      4.95809900      2.71666700
| 67> H         3.32765500      3.82664300      3.76296400
| 68> H         4.01871100      4.29286400      2.19192600
| 69> C         1.83346500      3.35410200      0.67873200
| 70> H         0.63584100     -1.61673700      3.45989000
| 71> C        -0.79195200      0.00914500      5.98923600
| 72> H        -0.23844700     -2.09074700      5.89313300
| 73> H        -1.22214900      0.09320500      6.97950400
| 74> S        -0.71927300      1.36380500      4.96958300
| 75> C        -4.21988100      0.08217200      0.20107000
| 76> C        -4.36727900     -1.01919200      2.52983000
| 77> C        -5.27126700      0.18374600      2.84334700
| 78> C        -3.39363900     -1.18216700      3.70377100
| 79> C        -5.20058200     -2.31983900      2.44369700
| 80> C        -6.26168800      0.52372700      1.72032800
| 81> H        -4.60961700      1.03709900      3.03036800
| 82> H        -5.80790800     -0.00666900      3.78000400
| 83> C        -5.75265400      0.07544000      0.34425600
| 84> H        -6.44805200      1.60313000      1.72184600
| 85> H        -7.23125500      0.04998800      1.91010200
| 86> C        -3.89415500     -0.51879000     -1.17638700
| 87> C        -3.70766900      1.53637000      0.20048600
| 88> H        -6.17336400      0.71547300     -0.43946700
| 89> H        -6.10556000     -0.93818500      0.12603800
| 90> H        -4.26274800     -1.54510700     -1.26340200
| 91> H        -2.81912400     -0.52700800     -1.37405400
| 92> H        -4.37543200      0.08137800     -1.95553200
| 93> H        -4.18776700      2.11239100     -0.59922200
| 94> H        -2.62722700      1.56359400      0.03226200
| 95> H        -3.90336000      2.03726900      1.15188100
| 96> H        -5.89510000     -2.31826800      1.60061300
| 97> H        -5.78453600     -2.45980000      3.36056500
| 98> H        -4.54403100     -3.18857400      2.33739000
| 99> H        -2.70401700     -2.01536600      3.54280300
|100> H        -3.94934400     -1.37807200      4.62691700
|101> H        -2.80636800     -0.27152100      3.83843200
|102> *
|103> 
|104> 
|105>                          ****END OF INPUT****
================================================================================

                     *******************************
                     * Energy+Gradient Calculation *
                     *******************************

---------------------------------
CARTESIAN COORDINATES (ANGSTROEM)
---------------------------------
  C     -2.401391   -1.418555    1.040286
  C     -1.131797   -0.839282    1.264193
  C     -0.000847   -1.574892    0.861649
  C     -0.093216   -2.856259    0.334628
  C     -1.345961   -3.440470    0.173544
  C     -2.480745   -2.716728    0.511990
  H      0.982479   -1.124296    0.979594
  H      0.805990   -3.394281    0.046374
  H     -1.440926   -4.442195   -0.236890
  H     -3.464396   -3.146111    0.346689
  N     -3.611411   -0.705527    1.302784
  B     -0.930038    0.590384    1.929793
  H      1.110258    4.161468    0.818937
  H      2.644035    3.719264    0.041437
  H      1.327366    2.535850    0.159080
  C      3.925740    1.317700    0.725063
  H      4.690354    2.088770    0.584479
  H      4.428134    0.348329    0.782311
  H      3.272420    1.307380   -0.149023
  C      4.031474    1.351401    3.229099
  H      4.369493    0.311986    3.242019
  H      4.911978    2.000370    3.210681
  H      3.476361    1.538206    4.152894
  C      0.013065    0.446161    3.676874
  C      0.189969   -0.867008    4.103431
  C     -0.274503   -1.124208    5.406425
  H     -1.848264    1.263084    2.280216
  H     -0.087884    1.262005    1.344826
  C      2.351079    2.915994    2.049863
  C      3.139655    1.561234    2.004627
  O      1.211476    2.573270    2.863243
  O      2.083253    0.582111    2.088466
  B      0.999483    1.217369    2.683538
  C      3.090065    4.062657    2.724382
  H      2.463055    4.958099    2.716667
  H      3.327655    3.826643    3.762964
  H      4.018711    4.292864    2.191926
  C      1.833465    3.354102    0.678732
  H      0.635841   -1.616737    3.459890
  C     -0.791952    0.009145    5.989236
  H     -0.238447   -2.090747    5.893133
  H     -1.222149    0.093205    6.979504
  S     -0.719273    1.363805    4.969583
  C     -4.219881    0.082172    0.201070
  C     -4.367279   -1.019192    2.529830
  C     -5.271267    0.183746    2.843347
  C     -3.393639   -1.182167    3.703771
  C     -5.200582   -2.319839    2.443697
  C     -6.261688    0.523727    1.720328
  H     -4.609617    1.037099    3.030368
  H     -5.807908   -0.006669    3.780004
  C     -5.752654    0.075440    0.344256
  H     -6.448052    1.603130    1.721846
  H     -7.231255    0.049988    1.910102
  C     -3.894155   -0.518790   -1.176387
  C     -3.707669    1.536370    0.200486
  H     -6.173364    0.715473   -0.439467
  H     -6.105560   -0.938185    0.126038
  H     -4.262748   -1.545107   -1.263402
  H     -2.819124   -0.527008   -1.374054
  H     -4.375432    0.081378   -1.955532
  H     -4.187767    2.112391   -0.599222
  H     -2.627227    1.563594    0.032262
  H     -3.903360    2.037269    1.151881
  H     -5.895100   -2.318268    1.600613
  H     -5.784536   -2.459800    3.360565
  H     -4.544031   -3.188574    2.337390
  H     -2.704017   -2.015366    3.542803
  H     -3.949344   -1.378072    4.626917
  H     -2.806368   -0.271521    3.838432

----------------------------
CARTESIAN COORDINATES (A.U.)
----------------------------
  NO LB      ZA    FRAG     MASS         X           Y           Z
   0 C     6.0000    0    12.011   -4.537971   -2.680680    1.965856
   1 C     6.0000    0    12.011   -2.138786   -1.586013    2.388979
   2 C     6.0000    0    12.011   -0.001601   -2.976115    1.628281
   3 C     6.0000    0    12.011   -0.176153   -5.397547    0.632355
   4 C     6.0000    0    12.011   -2.543498   -6.501546    0.327951
   5 C     6.0000    0    12.011   -4.687929   -5.133872    0.967521
   6 H     1.0000    0     1.008    1.856616   -2.124612    1.851164
   7 H     1.0000    0     1.008    1.523100   -6.414262    0.087634
   8 H     1.0000    0     1.008   -2.722956   -8.394532   -0.447657
   9 H     1.0000    0     1.008   -6.546760   -5.945288    0.655147
  10 N     7.0000    0    14.007   -6.824578   -1.333253    2.461905
  11 B     5.0000    0    10.810   -1.757517    1.115664    3.646780
  12 H     1.0000    0     1.008    2.098084    7.864035    1.547567
  13 H     1.0000    0     1.008    4.996502    7.028390    0.078305
  14 H     1.0000    0     1.008    2.508358    4.792062    0.300618
  15 C     6.0000    0    12.011    7.418573    2.490092    1.370170
  16 H     1.0000    0     1.008    8.863485    3.947203    1.104505
  17 H     1.0000    0     1.008    8.367961    0.658246    1.478354
  18 H     1.0000    0     1.008    6.183978    2.470590   -0.281613
  19 C     6.0000    0    12.011    7.618382    2.553778    6.102113
  20 H     1.0000    0     1.008    8.257145    0.589568    6.126528
  21 H     1.0000    0     1.008    9.282293    3.780151    6.067308
  22 H     1.0000    0     1.008    6.569370    2.906788    7.847832
  23 C     6.0000    0    12.011    0.024689    0.843122    6.948285
  24 C     6.0000    0    12.011    0.358989   -1.638408    7.754361
  25 C     6.0000    0    12.011   -0.518735   -2.124445   10.216663
  26 H     1.0000    0     1.008   -3.492713    2.386883    4.308984
  27 H     1.0000    0     1.008   -0.166077    2.384844    2.541353
  28 C     6.0000    0    12.011    4.442895    5.510430    3.873680
  29 C     6.0000    0    12.011    5.933088    2.950305    3.788196
  30 O     8.0000    0    15.999    2.289358    4.862776    5.410745
  31 O     8.0000    0    15.999    3.936778    1.100030    3.946629
  32 B     5.0000    0    10.810    1.888749    2.300494    5.071152
  33 C     6.0000    0    12.011    5.839377    7.677309    5.148336
  34 H     1.0000    0     1.008    4.654499    9.369449    5.133757
  35 H     1.0000    0     1.008    6.288357    7.231307    7.110971
  36 H     1.0000    0     1.008    7.594263    8.112337    4.142140
  37 C     6.0000    0    12.011    3.464747    6.338334    1.282618
  38 H     1.0000    0     1.008    1.201565   -3.055190    6.538245
  39 C     6.0000    0    12.011   -1.496572    0.017282   11.318016
  40 H     1.0000    0     1.008   -0.450600   -3.950939   11.136407
  41 H     1.0000    0     1.008   -2.309527    0.176132   13.189351
  42 S    16.0000    0    32.060   -1.359229    2.577218    9.391151
  43 C     6.0000    0    12.011   -7.974419    0.155283    0.379967
  44 C     6.0000    0    12.011   -8.252961   -1.925994    4.780686
  45 C     6.0000    0    12.011   -9.961251    0.347230    5.373147
  46 C     6.0000    0    12.011   -6.413048   -2.233972    6.999113
  47 C     6.0000    0    12.011   -9.827676   -4.383860    4.617918
  48 C     6.0000    0    12.011  -11.832875    0.989701    3.250949
  49 H     1.0000    0     1.008   -8.710914    1.959833    5.726566
  50 H     1.0000    0     1.008  -10.975356   -0.012603    7.143172
  51 C     6.0000    0    12.011  -10.870941    0.142561    0.650550
  52 H     1.0000    0     1.008  -12.185052    3.029477    3.253817
  53 H     1.0000    0     1.008  -13.665092    0.094464    3.609570
  54 C     6.0000    0    12.011   -7.358886   -0.980371   -2.223049
  55 C     6.0000    0    12.011   -7.006479    2.903319    0.378864
  56 H     1.0000    0     1.008  -11.665967    1.352048   -0.830472
  57 H     1.0000    0     1.008  -11.537836   -1.772913    0.238177
  58 H     1.0000    0     1.008   -8.055426   -2.919829   -2.387484
  59 H     1.0000    0     1.008   -5.327372   -0.995901   -2.596586
  60 H     1.0000    0     1.008   -8.268368    0.153782   -3.695420
  61 H     1.0000    0     1.008   -7.913733    3.991840   -1.132365
  62 H     1.0000    0     1.008   -4.964740    2.954764    0.060966
  63 H     1.0000    0     1.008   -7.376281    3.849880    2.176740
  64 H     1.0000    0     1.008  -11.140125   -4.380892    3.024720
  65 H     1.0000    0     1.008  -10.931189   -4.648348    6.350548
  66 H     1.0000    0     1.008   -8.586974   -6.025532    4.417027
  67 H     1.0000    0     1.008   -5.109852   -3.808490    6.694927
  68 H     1.0000    0     1.008   -7.463179   -2.604179    8.743606
  69 H     1.0000    0     1.008   -5.303267   -0.513100    7.253585

--------------------------------
INTERNAL COORDINATES (ANGSTROEM)
--------------------------------
 C      0   0   0     0.000000000000     0.00000000     0.00000000
 C      1   0   0     1.413350797932     0.00000000     0.00000000
 C      2   1   0     1.407910382992   117.52518026     0.00000000
 C      3   2   1     1.388590852372   122.49457575   356.23940014
 C      4   3   2     1.391625158799   119.41962998     1.00210868
 C      5   4   3     1.387833889245   119.26913565     1.60865146
 H      3   2   1     1.088061487471   118.59347503   176.95223936
 H      4   3   2     1.086797806142   120.16243009   180.68716400
 H      5   4   3     1.086704833525   120.62130394   180.00467527
 H      6   5   4     1.085938981293   119.82333331   177.15684261
 N      1   2   3     1.428797581601   121.80970520   185.64335237
 B      2   1   3     1.589866323197   123.29011107   179.48213085
 H     12   2   1     4.260217101910   134.86093246   234.35563847
 H     13  12   2     1.775534430346   108.60992689   321.09657164
 H     13  12   2     1.767818154120    52.07214825   342.76573647
 C     14  13  12     2.806710149089   120.06117302   331.65674733
 H     16  14  13     1.094964554199    71.64315248   218.61816940
 H     16  14  13     1.093323922898   168.88317738   128.24833049
 H     16  14  13     1.091311073982    62.58866051    94.96972631
 C     16  14  13     2.506493910915   104.54193948   309.25828393
 H     20  16  14     1.093072418912    90.69144685   170.53344930
 H     20  16  14     1.093977732726    91.43880521   278.94434478
 H     20  16  14     1.093820713289   145.54974847    46.16635437
 C     12   2   1     1.990611856415   111.24804901   115.55004136
 C     24  12   2     1.391998104175   113.42229160   352.52496546
 C     25  24  12     1.407010818302   114.47368012   232.79902233
 H     12   2   1     1.190991417268   122.22529013   359.90693635
 H     12   2   1     1.225758752139   112.34037830   223.85760783
 C     13  12   2     2.146164265892    68.95415770   266.10372916
 C     16  14  13     1.521355470124    80.32452878   334.54030628
 O     29  13  12     1.441437394473    90.25968512   320.81991787
 O     30  16  14     1.442808376970   108.57592859   109.63565005
 B     31  29  13     1.384089029245   106.30500686   114.90764263
 C     29  13  12     1.521812151721    95.60673131   212.46462324
 H     34  29  13     1.093168530781   109.60579136    25.83641326
 H     34  29  13     1.091239747727   111.38345432   145.27335880
 H     34  29  13     1.094937463101   110.77659634   266.62536005
 C     13  12   2     1.092943578063    74.40345424   310.60626547
 H     25  24  12     1.083992819398   121.52156074    51.78472408
 C     26  25  24     1.375467612098   111.46666927   359.01646962
 H     26  25  24     1.082766064725   124.64273891   178.64516430
 H     40  26  25     1.082943329188   126.93154641   179.53037023
 S     40  26  25     1.697079312540   112.76981893     0.15421389
 C     11   1   2     1.484748865397   118.39148731    91.34974930
 C     11   1   2     1.474911540319   118.73291064   257.41758268
 C     45  11   1     1.537057918648   107.73782030   158.98817161
 C     45  11   1     1.533842616342   109.51318003    42.37693258
 C     45  11   1     1.547092564169   114.11119155   282.26350023
 C     46  45  11     1.535477942519   113.79481246    59.07225873
 H     46  45  11     1.095887275020   106.80653763   297.50832126
 H     46  45  11     1.096160467612   109.04244580   182.72263694
 C     49  46  45     1.534161333338   112.16636374   333.60074139
 H     49  46  45     1.095374219721   109.08180618   211.19891031
 H     49  46  45     1.095674668269   110.38783969    95.13913579
 C     44  11   1     1.537738774750   111.74869219    28.92419477
 C     44  11   1     1.541769534400   111.37832941   268.88481837
 H     52  49  46     1.095837983425   110.08646737   207.64823461
 H     52  49  46     1.095261329996   110.01227981    91.28543375
 H     55  44  11     1.093964804901   111.50133565    59.66722777
 H     55  44  11     1.093083450325   111.91600153   298.49906641
 H     55  44  11     1.094941144527   109.27469117   179.02113148
 H     56  44  11     1.096278781747   110.51013048   181.67406782
 H     56  44  11     1.093798599248   110.59136474    62.26413316
 H     56  44  11     1.092861940826   111.86895886   302.56927088
 H     48  45  11     1.092313302776   112.59609046   304.19027048
 H     48  45  11     1.096010166495   110.35057969   183.58368652
 H     48  45  11     1.094102780398   110.47036156    64.92732764
 H     47  45  11     1.093485150109   111.63072512   297.66066907
 H     47  45  11     1.095164532555   110.00221676   177.87786970
 H     47  45  11     1.091923509078   110.31461920    58.15728351

---------------------------
INTERNAL COORDINATES (A.U.)
---------------------------
 C      0   0   0     0.000000000000     0.00000000     0.00000000
 C      1   0   0     2.670845939250     0.00000000     0.00000000
 C      2   1   0     2.660565044959   117.52518026     0.00000000
 C      3   2   1     2.624056423051   122.49457575   356.23940014
 C      4   3   2     2.629790431205   119.41962998     1.00210868
 C      5   4   3     2.622625970047   119.26913565     1.60865146
 H      3   2   1     2.056138228187   118.59347503   176.95223936
 H      4   3   2     2.053750216556   120.16243009   180.68716400
 H      5   4   3     2.053574523770   120.62130394   180.00467527
 H      6   5   4     2.052127272793   119.82333331   177.15684261
 N      1   2   3     2.700036130034   121.80970520   185.64335237
 B      2   1   3     3.004411940387   123.29011107   179.48213085
 H     12   2   1     8.050643593658   134.86093246   234.35563847
 H     13  12   2     3.355273814702   108.60992689   321.09657164
 H     13  12   2     3.340692165861    52.07214825   342.76573647
 C     14  13  12     5.303913519075   120.06117302   331.65674733
 H     16  14  13     2.069183133787    71.64315248   218.61816940
 H     16  14  13     2.066082789942   168.88317738   128.24833049
 H     16  14  13     2.062279056742    62.58866051    94.96972631
 C     16  14  13     4.736587047970   104.54193948   309.25828393
 H     20  16  14     2.065607516286    90.69144685   170.53344930
 H     20  16  14     2.067318311461    91.43880521   278.94434478
 H     20  16  14     2.067021587726   145.54974847    46.16635437
 C     12   2   1     3.761711247560   111.24804901   115.55004136
 C     24  12   2     2.630495195828   113.42229160   352.52496546
 C     25  24  12     2.658865114056   114.47368012   232.79902233
 H     12   2   1     2.250647606486   122.22529013   359.90693635
 H     12   2   1     2.316348347800   112.34037830   223.85760783
 C     13  12   2     4.055662700945    68.95415770   266.10372916
 C     16  14  13     2.874945190878    80.32452878   334.54030628
 O     29  13  12     2.723921914747    90.25968512   320.81991787
 O     30  16  14     2.726512696200   108.57592859   109.63565005
 B     31  29  13     2.615549210237   106.30500686   114.90764263
 C     29  13  12     2.875808194026    95.60673131   212.46462324
 H     34  29  13     2.065789141396   109.60579136    25.83641326
 H     34  29  13     2.062144269654   111.38345432   145.27335880
 H     34  29  13     2.069131939030   110.77659634   266.62536005
 C     13  12   2     2.065364042368    74.40345424   310.60626547
 H     25  24  12     2.048449559799   121.52156074    51.78472408
 C     26  25  24     2.599257092944   111.46666927   359.01646962
 H     26  25  24     2.046131329435   124.64273891   178.64516430
 H     40  26  25     2.046466310722   126.93154641   179.53037023
 S     40  26  25     3.207015128243   112.76981893     0.15421389
 C     11   1   2     2.805768733250   118.39148731    91.34974930
 C     11   1   2     2.787178882962   118.73291064   257.41758268
 C     45  11   1     2.904618518219   107.73782030   158.98817161
 C     45  11   1     2.898542477423   109.51318003    42.37693258
 C     45  11   1     2.923581250105   114.11119155   282.26350023
 C     46  45  11     2.901632796038   113.79481246    59.07225873
 H     46  45  11     2.070926823436   106.80653763   297.50832126
 H     46  45  11     2.071443082617   109.04244580   182.72263694
 C     49  46  45     2.899144765260   112.16636374   333.60074139
 H     49  46  45     2.069957289430   109.08180618   211.19891031
 H     49  46  45     2.070525054903   110.38783969    95.13913579
 C     44  11   1     2.905905149789   111.74869219    28.92419477
 C     44  11   1     2.913522181639   111.37832941   268.88481837
 H     52  49  46     2.070833675823   110.08646737   207.64823461
 H     52  49  46     2.069743958767   110.01227981    91.28543375
 H     55  44  11     2.067293881412   111.50133565    59.66722777
 H     55  44  11     2.065628362636   111.91600153   298.49906641
 H     55  44  11     2.069138895918   109.27469117   179.02113148
 H     56  44  11     2.071666663931   110.51013048   181.67406782
 H     56  44  11     2.066979798245   110.59136474    62.26413316
 H     56  44  11     2.065209770348   111.86895886   302.56927088
 H     48  45  11     2.064172994685   112.59609046   304.19027048
 H     48  45  11     2.071159054670   110.35057969   183.58368652
 H     48  45  11     2.067554617314   110.47036156    64.92732764
 H     47  45  11     2.066387465216   111.63072512   297.66066907
 H     47  45  11     2.069561038112   110.00221676   177.87786970
 H     47  45  11     2.063436391348   110.31461920    58.15728351

Calling /Users/jacobmolinnielsen/Library/orca-external-tools/umaclient.sh input_EXT.extinp.tmp -b 127.0.0.1:59079  ... 

Total time:   3.320 seconds

External program completed successfully in 3.354 sec

-------------------------------------------------   --------------------
FINAL SINGLE POINT ENERGY (From external program)     -1629.230390881000
-------------------------------------------------   --------------------


------------------
CARTESIAN GRADIENT
------------------

   1   C   :   -0.002756298    0.001505999    0.000897580
   2   C   :    0.000193087    0.001860327   -0.000572240
   3   C   :    0.000905267    0.001339458    0.000488162
   4   C   :    0.001188355   -0.001428620   -0.000554103
   5   C   :    0.000428526   -0.001640315   -0.000777788
   6   C   :   -0.001560778   -0.001655929   -0.000402622
   7   H   :    0.002521264    0.001229352    0.000291539
   8   H   :    0.002073498   -0.001288959   -0.000646318
   9   H   :   -0.000226173   -0.002312613   -0.001051766
  10   H   :   -0.002262278   -0.001054587   -0.000141373
  11   N   :   -0.000456827   -0.000760165   -0.000512455
  12   B   :    0.006066855    0.000939700    0.002925217
  13   H   :   -0.001489093    0.001199595   -0.000166662
  14   H   :    0.001071671    0.000786392   -0.001651550
  15   H   :   -0.001069579   -0.001272284   -0.001179482
  16   C   :    0.000226932   -0.000521597    0.000258467
  17   H   :    0.001589842    0.001167793   -0.000634078
  18   H   :    0.000882857   -0.001740259   -0.000500484
  19   H   :   -0.000835743   -0.000351848   -0.001846705
  20   C   :   -0.000012626   -0.000597839    0.000169803
  21   H   :    0.000699054   -0.001760423    0.000519363
  22   H   :    0.002027079    0.000828791    0.000407997
  23   H   :   -0.000654567    0.000096585    0.001660699
  24   C   :    0.001168037   -0.001219212   -0.000228416
  25   C   :    0.001771912   -0.000071278   -0.001126220
  26   C   :   -0.001004512   -0.000100616    0.002279408
  27   H   :   -0.003029264    0.001633312   -0.000973090
  28   H   :    0.001617210    0.000900647   -0.000427093
  29   C   :   -0.004161209   -0.001697558    0.002435043
  30   C   :   -0.002678285   -0.002673619    0.000395775
  31   O   :    0.002212121    0.000996359   -0.000979854
  32   O   :    0.001912501    0.000406528    0.000060231
  33   B   :   -0.002214283    0.002244634   -0.006195837
  34   C   :   -0.000215911    0.000598951    0.000027729
  35   H   :   -0.000782271    0.001817110    0.000484866
  36   H   :    0.000373312   -0.000060397    0.002060238
  37   H   :    0.001752124    0.000824637   -0.000769367
  38   C   :   -0.000188276    0.000947653    0.000368285
  39   H   :    0.000725864   -0.001391560   -0.001601340
  40   C   :    0.000132891   -0.003213172    0.003128888
  41   H   :   -0.000123057   -0.002112158    0.001003469
  42   H   :   -0.000973192    0.000204920    0.002283366
  43   S   :   -0.001530560    0.006157956    0.000634962
  44   C   :    0.001377238   -0.000698407    0.001005598
  45   C   :    0.001538606    0.000552080   -0.001125636
  46   C   :   -0.001030219    0.000294784    0.000123081
  47   C   :   -0.000157689   -0.000198439    0.000597204
  48   C   :    0.000057817   -0.000179146    0.000727726
  49   C   :    0.000072124    0.000059067    0.000052446
  50   H   :    0.000871034    0.001455438    0.000696797
  51   H   :   -0.001263073    0.000164060    0.001930410
  52   C   :   -0.000759950    0.000777390    0.000324238
  53   H   :   -0.000558565    0.002138032   -0.000032155
  54   H   :   -0.002050872   -0.000749451    0.000341163
  55   C   :    0.000088969    0.000411077   -0.000411810
  56   C   :   -0.000088146   -0.000050155   -0.000709824
  57   H   :   -0.001339038    0.001109167   -0.001481155
  58   H   :   -0.001060829   -0.002086731   -0.000490828
  59   H   :   -0.000535208   -0.001922095   -0.000603531
  60   H   :    0.001518616   -0.000198694   -0.000645018
  61   H   :   -0.000754835    0.000595118   -0.001998670
  62   H   :   -0.000618802    0.001492225   -0.001250018
  63   H   :    0.001698045    0.000509154   -0.000087014
  64   H   :    0.000011630    0.001301793    0.001478594
  65   H   :   -0.001352565   -0.000303076   -0.001728345
  66   H   :   -0.001352972   -0.000845410    0.001371859
  67   H   :    0.000913457   -0.001862469   -0.000362205
  68   H   :    0.001306608   -0.000947925    0.000158696
  69   H   :   -0.000349869   -0.000294230    0.001984935
  70   H   :    0.000503016    0.000715166    0.000291232

Difference to translation invariance:
           :    0.0000000061    0.0000000131    0.0000000096

Difference to rotation invariance:
           :   -0.0000000225    0.0000000561   -0.0000000441

Norm of the Cartesian gradient     ...    0.0211923008
RMS gradient                       ...    0.0014624077
MAX gradient                       ...    0.0061958367

----------------------------------------------------------------------------
                           ORCA NUMERICAL FREQUENCIES
                              (10-process run)
----------------------------------------------------------------------------

Number of atoms                ... 70
Central differences            ... used
Translation invariance         ... used
Number of displacements        ... 420 - 6
Numerical increment            ... 5.000e-03 bohr
IR-spectrum generation         ... on
Raman-spectrum generation      ... off
Surface Crossing Hessian       ... off

The output will be reduced. Please look at the following files:
SCF program output             ... >input.lastscf
Integral program output        ... >input.lastint
Gradient program output        ... >input.lastgrad
Dipole moment program output   ... >input.lastmom

List of participating nodes    ...  input.hostnames

	<< Calculating gradient on displaced geometry   1 (of 414) >>
	<< Calculating gradient on displaced geometry   3 (of 414) >>
	<< Calculating gradient on displaced geometry   8 (of 414) >>
	<< Calculating gradient on displaced geometry   7 (of 414) >>
	<< Calculating gradient on displaced geometry   6 (of 414) >>
	<< Calculating gradient on displaced geometry  10 (of 414) >>
	<< Calculating gradient on displaced geometry   4 (of 414) >>
	<< Calculating gradient on displaced geometry   5 (of 414) >>
	<< Calculating gradient on displaced geometry   9 (of 414) >>
	<< Calculating gradient on displaced geometry   2 (of 414) >>
	<< Calculating gradient on displaced geometry  11 (of 414) >>
	<< Calculating gradient on displaced geometry  12 (of 414) >>
	<< Calculating gradient on displaced geometry  13 (of 414) >>
	<< Calculating gradient on displaced geometry  14 (of 414) >>
	<< Calculating gradient on displaced geometry  15 (of 414) >>
	<< Calculating gradient on displaced geometry  16 (of 414) >>
	<< Calculating gradient on displaced geometry  17 (of 414) >>
	<< Calculating gradient on displaced geometry  18 (of 414) >>
	<< Calculating gradient on displaced geometry  20 (of 414) >>
	<< Calculating gradient on displaced geometry  19 (of 414) >>
	<< Calculating gradient on displaced geometry  21 (of 414) >>
	<< Calculating gradient on displaced geometry  22 (of 414) >>
	<< Calculating gradient on displaced geometry  23 (of 414) >>
	<< Calculating gradient on displaced geometry  24 (of 414) >>
	<< Calculating gradient on displaced geometry  25 (of 414) >>
	<< Calculating gradient on displaced geometry  26 (of 414) >>
	<< Calculating gradient on displaced geometry  27 (of 414) >>
	<< Calculating gradient on displaced geometry  29 (of 414) >>
	<< Calculating gradient on displaced geometry  28 (of 414) >>
	<< Calculating gradient on displaced geometry  30 (of 414) >>
	<< Calculating gradient on displaced geometry  31 (of 414) >>
	<< Calculating gradient on displaced geometry  32 (of 414) >>
	<< Calculating gradient on displaced geometry  33 (of 414) >>
	<< Calculating gradient on displaced geometry  34 (of 414) >>
	<< Calculating gradient on displaced geometry  35 (of 414) >>
	<< Calculating gradient on displaced geometry  37 (of 414) >>
	<< Calculating gradient on displaced geometry  36 (of 414) >>
	<< Calculating gradient on displaced geometry  38 (of 414) >>
	<< Calculating gradient on displaced geometry  39 (of 414) >>
	<< Calculating gradient on displaced geometry  40 (of 414) >>
	<< Calculating gradient on displaced geometry  41 (of 414) >>
	<< Calculating gradient on displaced geometry  42 (of 414) >>
	<< Calculating gradient on displaced geometry  43 (of 414) >>
	<< Calculating gradient on displaced geometry  44 (of 414) >>
	<< Calculating gradient on displaced geometry  45 (of 414) >>
	<< Calculating gradient on displaced geometry  46 (of 414) >>
	<< Calculating gradient on displaced geometry  47 (of 414) >>
	<< Calculating gradient on displaced geometry  48 (of 414) >>
	<< Calculating gradient on displaced geometry  49 (of 414) >>
	<< Calculating gradient on displaced geometry  50 (of 414) >>
	<< Calculating gradient on displaced geometry  51 (of 414) >>
	<< Calculating gradient on displaced geometry  52 (of 414) >>
	<< Calculating gradient on displaced geometry  53 (of 414) >>
	<< Calculating gradient on displaced geometry  54 (of 414) >>
	<< Calculating gradient on displaced geometry  55 (of 414) >>
	<< Calculating gradient on displaced geometry  56 (of 414) >>
	<< Calculating gradient on displaced geometry  57 (of 414) >>
	<< Calculating gradient on displaced geometry  58 (of 414) >>
	<< Calculating gradient on displaced geometry  59 (of 414) >>
	<< Calculating gradient on displaced geometry  60 (of 414) >>
	<< Calculating gradient on displaced geometry  61 (of 414) >>
	<< Calculating gradient on displaced geometry  62 (of 414) >>
	<< Calculating gradient on displaced geometry  63 (of 414) >>
	<< Calculating gradient on displaced geometry  64 (of 414) >>
	<< Calculating gradient on displaced geometry  65 (of 414) >>
	<< Calculating gradient on displaced geometry  66 (of 414) >>
	<< Calculating gradient on displaced geometry  67 (of 414) >>
	<< Calculating gradient on displaced geometry  68 (of 414) >>
	<< Calculating gradient on displaced geometry  69 (of 414) >>
	<< Calculating gradient on displaced geometry  70 (of 414) >>
	<< Calculating gradient on displaced geometry  71 (of 414) >>
	<< Calculating gradient on displaced geometry  72 (of 414) >>
	<< Calculating gradient on displaced geometry  73 (of 414) >>
	<< Calculating gradient on displaced geometry  74 (of 414) >>
	<< Calculating gradient on displaced geometry  75 (of 414) >>
	<< Calculating gradient on displaced geometry  76 (of 414) >>
	<< Calculating gradient on displaced geometry  77 (of 414) >>
	<< Calculating gradient on displaced geometry  78 (of 414) >>
	<< Calculating gradient on displaced geometry  79 (of 414) >>
	<< Calculating gradient on displaced geometry  80 (of 414) >>
	<< Calculating gradient on displaced geometry  81 (of 414) >>
	<< Calculating gradient on displaced geometry  82 (of 414) >>
	<< Calculating gradient on displaced geometry  83 (of 414) >>
	<< Calculating gradient on displaced geometry  84 (of 414) >>
	<< Calculating gradient on displaced geometry  85 (of 414) >>
	<< Calculating gradient on displaced geometry  86 (of 414) >>
	<< Calculating gradient on displaced geometry  87 (of 414) >>
	<< Calculating gradient on displaced geometry  88 (of 414) >>
	<< Calculating gradient on displaced geometry  89 (of 414) >>
	<< Calculating gradient on displaced geometry  90 (of 414) >>
	<< Calculating gradient on displaced geometry  91 (of 414) >>
	<< Calculating gradient on displaced geometry  92 (of 414) >>
	<< Calculating gradient on displaced geometry  93 (of 414) >>
	<< Calculating gradient on displaced geometry  94 (of 414) >>
	<< Calculating gradient on displaced geometry  95 (of 414) >>
	<< Calculating gradient on displaced geometry  96 (of 414) >>
	<< Calculating gradient on displaced geometry  97 (of 414) >>
	<< Calculating gradient on displaced geometry  98 (of 414) >>
	<< Calculating gradient on displaced geometry  99 (of 414) >>
	<< Calculating gradient on displaced geometry 100 (of 414) >>
	<< Calculating gradient on displaced geometry 101 (of 414) >>
	<< Calculating gradient on displaced geometry 102 (of 414) >>
	<< Calculating gradient on displaced geometry 103 (of 414) >>
	<< Calculating gradient on displaced geometry 104 (of 414) >>
	<< Calculating gradient on displaced geometry 105 (of 414) >>
	<< Calculating gradient on displaced geometry 106 (of 414) >>
	<< Calculating gradient on displaced geometry 107 (of 414) >>
	<< Calculating gradient on displaced geometry 108 (of 414) >>
	<< Calculating gradient on displaced geometry 109 (of 414) >>
	<< Calculating gradient on displaced geometry 110 (of 414) >>
	<< Calculating gradient on displaced geometry 111 (of 414) >>
	<< Calculating gradient on displaced geometry 112 (of 414) >>
	<< Calculating gradient on displaced geometry 113 (of 414) >>
	<< Calculating gradient on displaced geometry 114 (of 414) >>
	<< Calculating gradient on displaced geometry 115 (of 414) >>
	<< Calculating gradient on displaced geometry 116 (of 414) >>
	<< Calculating gradient on displaced geometry 117 (of 414) >>
	<< Calculating gradient on displaced geometry 118 (of 414) >>
	<< Calculating gradient on displaced geometry 119 (of 414) >>
	<< Calculating gradient on displaced geometry 120 (of 414) >>
	<< Calculating gradient on displaced geometry 121 (of 414) >>
	<< Calculating gradient on displaced geometry 122 (of 414) >>
	<< Calculating gradient on displaced geometry 123 (of 414) >>
	<< Calculating gradient on displaced geometry 124 (of 414) >>
	<< Calculating gradient on displaced geometry 125 (of 414) >>
	<< Calculating gradient on displaced geometry 126 (of 414) >>
	<< Calculating gradient on displaced geometry 127 (of 414) >>
	<< Calculating gradient on displaced geometry 128 (of 414) >>
	<< Calculating gradient on displaced geometry 129 (of 414) >>
	<< Calculating gradient on displaced geometry 130 (of 414) >>
	<< Calculating gradient on displaced geometry 131 (of 414) >>
	<< Calculating gradient on displaced geometry 132 (of 414) >>
	<< Calculating gradient on displaced geometry 133 (of 414) >>
	<< Calculating gradient on displaced geometry 134 (of 414) >>
	<< Calculating gradient on displaced geometry 135 (of 414) >>
	<< Calculating gradient on displaced geometry 136 (of 414) >>
	<< Calculating gradient on displaced geometry 137 (of 414) >>
	<< Calculating gradient on displaced geometry 138 (of 414) >>
	<< Calculating gradient on displaced geometry 139 (of 414) >>
	<< Calculating gradient on displaced geometry 140 (of 414) >>
	<< Calculating gradient on displaced geometry 141 (of 414) >>
	<< Calculating gradient on displaced geometry 142 (of 414) >>
	<< Calculating gradient on displaced geometry 143 (of 414) >>
	<< Calculating gradient on displaced geometry 144 (of 414) >>
	<< Calculating gradient on displaced geometry 145 (of 414) >>
	<< Calculating gradient on displaced geometry 146 (of 414) >>
	<< Calculating gradient on displaced geometry 147 (of 414) >>
	<< Calculating gradient on displaced geometry 148 (of 414) >>
	<< Calculating gradient on displaced geometry 149 (of 414) >>
	<< Calculating gradient on displaced geometry 150 (of 414) >>
	<< Calculating gradient on displaced geometry 151 (of 414) >>
	<< Calculating gradient on displaced geometry 152 (of 414) >>
	<< Calculating gradient on displaced geometry 153 (of 414) >>
	<< Calculating gradient on displaced geometry 154 (of 414) >>
	<< Calculating gradient on displaced geometry 155 (of 414) >>
	<< Calculating gradient on displaced geometry 156 (of 414) >>
	<< Calculating gradient on displaced geometry 157 (of 414) >>
	<< Calculating gradient on displaced geometry 158 (of 414) >>
	<< Calculating gradient on displaced geometry 159 (of 414) >>
	<< Calculating gradient on displaced geometry 160 (of 414) >>
	<< Calculating gradient on displaced geometry 161 (of 414) >>
	<< Calculating gradient on displaced geometry 162 (of 414) >>
	<< Calculating gradient on displaced geometry 163 (of 414) >>
	<< Calculating gradient on displaced geometry 164 (of 414) >>
	<< Calculating gradient on displaced geometry 165 (of 414) >>
	<< Calculating gradient on displaced geometry 166 (of 414) >>
	<< Calculating gradient on displaced geometry 167 (of 414) >>
	<< Calculating gradient on displaced geometry 168 (of 414) >>
	<< Calculating gradient on displaced geometry 169 (of 414) >>
	<< Calculating gradient on displaced geometry 170 (of 414) >>
	<< Calculating gradient on displaced geometry 171 (of 414) >>
	<< Calculating gradient on displaced geometry 172 (of 414) >>
	<< Calculating gradient on displaced geometry 173 (of 414) >>
	<< Calculating gradient on displaced geometry 174 (of 414) >>
	<< Calculating gradient on displaced geometry 175 (of 414) >>
	<< Calculating gradient on displaced geometry 176 (of 414) >>
	<< Calculating gradient on displaced geometry 177 (of 414) >>
	<< Calculating gradient on displaced geometry 178 (of 414) >>
	<< Calculating gradient on displaced geometry 179 (of 414) >>
	<< Calculating gradient on displaced geometry 180 (of 414) >>
	<< Calculating gradient on displaced geometry 181 (of 414) >>
	<< Calculating gradient on displaced geometry 182 (of 414) >>
	<< Calculating gradient on displaced geometry 183 (of 414) >>
	<< Calculating gradient on displaced geometry 184 (of 414) >>
	<< Calculating gradient on displaced geometry 185 (of 414) >>
	<< Calculating gradient on displaced geometry 186 (of 414) >>
	<< Calculating gradient on displaced geometry 187 (of 414) >>
	<< Calculating gradient on displaced geometry 188 (of 414) >>
	<< Calculating gradient on displaced geometry 189 (of 414) >>
	<< Calculating gradient on displaced geometry 190 (of 414) >>
	<< Calculating gradient on displaced geometry 191 (of 414) >>
	<< Calculating gradient on displaced geometry 192 (of 414) >>
	<< Calculating gradient on displaced geometry 193 (of 414) >>
	<< Calculating gradient on displaced geometry 194 (of 414) >>
	<< Calculating gradient on displaced geometry 195 (of 414) >>
	<< Calculating gradient on displaced geometry 196 (of 414) >>
	<< Calculating gradient on displaced geometry 197 (of 414) >>
	<< Calculating gradient on displaced geometry 198 (of 414) >>
	<< Calculating gradient on displaced geometry 199 (of 414) >>
	<< Calculating gradient on displaced geometry 200 (of 414) >>
	<< Calculating gradient on displaced geometry 201 (of 414) >>
	<< Calculating gradient on displaced geometry 202 (of 414) >>
	<< Calculating gradient on displaced geometry 203 (of 414) >>
	<< Calculating gradient on displaced geometry 204 (of 414) >>
	<< Calculating gradient on displaced geometry 205 (of 414) >>
	<< Calculating gradient on displaced geometry 206 (of 414) >>
	<< Calculating gradient on displaced geometry 207 (of 414) >>
	<< Calculating gradient on displaced geometry 208 (of 414) >>
	<< Calculating gradient on displaced geometry 209 (of 414) >>
	<< Calculating gradient on displaced geometry 210 (of 414) >>
	<< Calculating gradient on displaced geometry 211 (of 414) >>
	<< Calculating gradient on displaced geometry 212 (of 414) >>
	<< Calculating gradient on displaced geometry 213 (of 414) >>
	<< Calculating gradient on displaced geometry 214 (of 414) >>
	<< Calculating gradient on displaced geometry 215 (of 414) >>
	<< Calculating gradient on displaced geometry 216 (of 414) >>
	<< Calculating gradient on displaced geometry 217 (of 414) >>
	<< Calculating gradient on displaced geometry 218 (of 414) >>
	<< Calculating gradient on displaced geometry 219 (of 414) >>
	<< Calculating gradient on displaced geometry 220 (of 414) >>
	<< Calculating gradient on displaced geometry 221 (of 414) >>
	<< Calculating gradient on displaced geometry 222 (of 414) >>
	<< Calculating gradient on displaced geometry 223 (of 414) >>
	<< Calculating gradient on displaced geometry 224 (of 414) >>
	<< Calculating gradient on displaced geometry 225 (of 414) >>
	<< Calculating gradient on displaced geometry 226 (of 414) >>
	<< Calculating gradient on displaced geometry 227 (of 414) >>
	<< Calculating gradient on displaced geometry 228 (of 414) >>
	<< Calculating gradient on displaced geometry 229 (of 414) >>
	<< Calculating gradient on displaced geometry 230 (of 414) >>
	<< Calculating gradient on displaced geometry 231 (of 414) >>
	<< Calculating gradient on displaced geometry 232 (of 414) >>
	<< Calculating gradient on displaced geometry 233 (of 414) >>
	<< Calculating gradient on displaced geometry 234 (of 414) >>
	<< Calculating gradient on displaced geometry 235 (of 414) >>
	<< Calculating gradient on displaced geometry 236 (of 414) >>
	<< Calculating gradient on displaced geometry 237 (of 414) >>
	<< Calculating gradient on displaced geometry 238 (of 414) >>
	<< Calculating gradient on displaced geometry 239 (of 414) >>
	<< Calculating gradient on displaced geometry 240 (of 414) >>
	<< Calculating gradient on displaced geometry 241 (of 414) >>
	<< Calculating gradient on displaced geometry 242 (of 414) >>
	<< Calculating gradient on displaced geometry 243 (of 414) >>
	<< Calculating gradient on displaced geometry 244 (of 414) >>
	<< Calculating gradient on displaced geometry 245 (of 414) >>
	<< Calculating gradient on displaced geometry 246 (of 414) >>
	<< Calculating gradient on displaced geometry 247 (of 414) >>
	<< Calculating gradient on displaced geometry 248 (of 414) >>
	<< Calculating gradient on displaced geometry 249 (of 414) >>
	<< Calculating gradient on displaced geometry 250 (of 414) >>
	<< Calculating gradient on displaced geometry 251 (of 414) >>
	<< Calculating gradient on displaced geometry 252 (of 414) >>
	<< Calculating gradient on displaced geometry 253 (of 414) >>
	<< Calculating gradient on displaced geometry 254 (of 414) >>
	<< Calculating gradient on displaced geometry 255 (of 414) >>
	<< Calculating gradient on displaced geometry 256 (of 414) >>
	<< Calculating gradient on displaced geometry 257 (of 414) >>
	<< Calculating gradient on displaced geometry 258 (of 414) >>
	<< Calculating gradient on displaced geometry 259 (of 414) >>
	<< Calculating gradient on displaced geometry 260 (of 414) >>
	<< Calculating gradient on displaced geometry 261 (of 414) >>
	<< Calculating gradient on displaced geometry 262 (of 414) >>
	<< Calculating gradient on displaced geometry 263 (of 414) >>
	<< Calculating gradient on displaced geometry 264 (of 414) >>
	<< Calculating gradient on displaced geometry 265 (of 414) >>
	<< Calculating gradient on displaced geometry 266 (of 414) >>
	<< Calculating gradient on displaced geometry 267 (of 414) >>
	<< Calculating gradient on displaced geometry 268 (of 414) >>
	<< Calculating gradient on displaced geometry 269 (of 414) >>
	<< Calculating gradient on displaced geometry 270 (of 414) >>
	<< Calculating gradient on displaced geometry 271 (of 414) >>
	<< Calculating gradient on displaced geometry 272 (of 414) >>
	<< Calculating gradient on displaced geometry 273 (of 414) >>
	<< Calculating gradient on displaced geometry 274 (of 414) >>
	<< Calculating gradient on displaced geometry 275 (of 414) >>
	<< Calculating gradient on displaced geometry 276 (of 414) >>
	<< Calculating gradient on displaced geometry 277 (of 414) >>
	<< Calculating gradient on displaced geometry 278 (of 414) >>
	<< Calculating gradient on displaced geometry 279 (of 414) >>
	<< Calculating gradient on displaced geometry 280 (of 414) >>
	<< Calculating gradient on displaced geometry 281 (of 414) >>
	<< Calculating gradient on displaced geometry 282 (of 414) >>
	<< Calculating gradient on displaced geometry 283 (of 414) >>
	<< Calculating gradient on displaced geometry 284 (of 414) >>
	<< Calculating gradient on displaced geometry 285 (of 414) >>
	<< Calculating gradient on displaced geometry 286 (of 414) >>
	<< Calculating gradient on displaced geometry 287 (of 414) >>
	<< Calculating gradient on displaced geometry 288 (of 414) >>
	<< Calculating gradient on displaced geometry 289 (of 414) >>
	<< Calculating gradient on displaced geometry 290 (of 414) >>
	<< Calculating gradient on displaced geometry 291 (of 414) >>
	<< Calculating gradient on displaced geometry 292 (of 414) >>
	<< Calculating gradient on displaced geometry 294 (of 414) >>
	<< Calculating gradient on displaced geometry 293 (of 414) >>
	<< Calculating gradient on displaced geometry 295 (of 414) >>
	<< Calculating gradient on displaced geometry 296 (of 414) >>
	<< Calculating gradient on displaced geometry 297 (of 414) >>
	<< Calculating gradient on displaced geometry 298 (of 414) >>
	<< Calculating gradient on displaced geometry 299 (of 414) >>
	<< Calculating gradient on displaced geometry 300 (of 414) >>
	<< Calculating gradient on displaced geometry 301 (of 414) >>
	<< Calculating gradient on displaced geometry 302 (of 414) >>
	<< Calculating gradient on displaced geometry 304 (of 414) >>
	<< Calculating gradient on displaced geometry 303 (of 414) >>
	<< Calculating gradient on displaced geometry 305 (of 414) >>
	<< Calculating gradient on displaced geometry 306 (of 414) >>
	<< Calculating gradient on displaced geometry 307 (of 414) >>
	<< Calculating gradient on displaced geometry 308 (of 414) >>
	<< Calculating gradient on displaced geometry 309 (of 414) >>
	<< Calculating gradient on displaced geometry 310 (of 414) >>
	<< Calculating gradient on displaced geometry 311 (of 414) >>
	<< Calculating gradient on displaced geometry 312 (of 414) >>
	<< Calculating gradient on displaced geometry 313 (of 414) >>
	<< Calculating gradient on displaced geometry 314 (of 414) >>
	<< Calculating gradient on displaced geometry 315 (of 414) >>
	<< Calculating gradient on displaced geometry 316 (of 414) >>
	<< Calculating gradient on displaced geometry 317 (of 414) >>
	<< Calculating gradient on displaced geometry 318 (of 414) >>
	<< Calculating gradient on displaced geometry 319 (of 414) >>
	<< Calculating gradient on displaced geometry 320 (of 414) >>
	<< Calculating gradient on displaced geometry 321 (of 414) >>
	<< Calculating gradient on displaced geometry 322 (of 414) >>
	<< Calculating gradient on displaced geometry 323 (of 414) >>
	<< Calculating gradient on displaced geometry 324 (of 414) >>
	<< Calculating gradient on displaced geometry 325 (of 414) >>
	<< Calculating gradient on displaced geometry 326 (of 414) >>
	<< Calculating gradient on displaced geometry 327 (of 414) >>
	<< Calculating gradient on displaced geometry 328 (of 414) >>
	<< Calculating gradient on displaced geometry 329 (of 414) >>
	<< Calculating gradient on displaced geometry 330 (of 414) >>
	<< Calculating gradient on displaced geometry 331 (of 414) >>
	<< Calculating gradient on displaced geometry 332 (of 414) >>
	<< Calculating gradient on displaced geometry 333 (of 414) >>
	<< Calculating gradient on displaced geometry 334 (of 414) >>
	<< Calculating gradient on displaced geometry 335 (of 414) >>
	<< Calculating gradient on displaced geometry 336 (of 414) >>
