
                                 *****************
                                 * O   R   C   A *
                                 *****************

                                            #,                                       
                                            ###                                      
                                            ####                                     
                                            #####                                    
                                            ######                                   
                                           ########,                                 
                                     ,,################,,,,,                         
                               ,,#################################,,                 
                          ,,##########################################,,             
                       ,#########################################, ''#####,          
                    ,#############################################,,   '####,        
                  ,##################################################,,,,####,       
                ,###########''''           ''''###############################       
              ,#####''   ,,,,##########,,,,          '''####'''          '####       
            ,##' ,,,,###########################,,,                        '##       
           ' ,,###''''                  '''############,,,                           
         ,,##''                                '''############,,,,        ,,,,,,###''
      ,#''                                            '''#######################'''  
     '                                                          ''''####''''         
             ,#######,   #######,   ,#######,      ##                                
            ,#'     '#,  ##    ##  ,#'     '#,    #''#        ,####,    ,#,          
            ##       ##  ##   ,#'  ##            #'  '#       #'       ,# #          
            ##       ##  #######   ##           ,######,      #####,      #          
            '#,     ,#'  ##    ##  '#,     ,#' ,#      #,     #,   #      #          
             '#######'   ##     ##  '#######'  #'      '#     '####' #    #          



                #########################################################
                #                        -***-                          #
                #          Department of theory and spectroscopy        #
                #                                                       #
                #                      Frank Neese                      #
                #                                                       #
                #     Directorship, Architecture, Infrastructure        #
                #                    SHARK, DRIVERS                     #
                #        Core code/Algorithms in most modules           #
                #                                                       #
                #        Max Planck Institute fuer Kohlenforschung      #
                #                Kaiser Wilhelm Platz 1                 #
                #                 D-45470 Muelheim/Ruhr                 #
                #                      Germany                          #
                #                                                       #
                #                  All rights reserved                  #
                #                        -***-                          #
                #########################################################


                         Program Version 6.1.0  -  RELEASE   -
                                (GIT: $679e74b$)
                          ($2025-06-10 18:02:51 +0200$)


 With contributions from (in alphabetic order):
[Max-Planck-Institut fuer Kohlenforschung]                               
  Daniel Aravena         : Magnetic Suceptibility                        
  Michael Atanasov       : Ab Initio Ligand Field Theory (pilot matlab implementation)
  Alexander A. Auer      : GIAO ZORA, VPT2 properties, NMR spectrum      
  Ute Becker             : All parallelization in ORCA, NUMFREQ, NUMCALC 
  Giovanni Bistoni       : ED, misc. LED, open-shell LED, HFLD           
  Dmytro Bykov           : pre 5.0 version of the SCF Hessian            
  Marcos Casanova-Páez   : Triplet and SCS-CIS(D). UHF-(DLPNO)-IP/EA/STEOM-CCSD. UHF-CVS-IP/STEOM-CCSD   
  Vijay G. Chilkuri      : MRCI spin determinant printing, contributions to CSF-ICE 
  Pauline Colinet        : FMM embedding                                 
  Dipayan Datta          : RHF DLPNO-CCSD density                        
  Achintya Kumar Dutta   : EOM-CC, STEOM-CC                              
  Nicolas Foglia         : Exact transition moments, OPA infrastructure, MCD improvements    
  Dmitry Ganyushin       : Spin-Orbit,Spin-Spin,Magnetic field MRCI      
  Miquel Garcia-Rates    : C-PCM and meta-GGA Hessian, CCSD/C-PCM, Gaussian charge scheme 
  Tiago L. C. Gouveia    : GS-ROHF, GS-ROCIS                             
  Yang Guo               : DLPNO-NEVPT2, F12-NEVPT2, CIM, IAO-localization        
  Andreas Hansen         : Spin unrestricted coupled pair/coupled cluster methods 
  Ingolf Harden          : AUTO-CI MPn and infrastructure                
  Benjamin Helmich-Paris : MC-RPA, TRAH-(SCF,CASSCF), AVAS, COSX integrals, SCF dyn. polar., MC-PDFT, srDFT 
  Lee Huntington         : MR-EOM, pCC                                   
  Robert Izsak           : Overlap fitted RIJCOSX, COSX-SCS-MP3, EOM     
  Riya Kayal             : Wick's Theorem for AUTO-CI, AUTO-CI UHF-CCSDT 
  Emily Kempfer          : AUTO-CI RHF CISDT and CCSDT, approximate NEVPT4
  Christian Kollmar      : KDIIS, OOCD, Brueckner-CCSD(T), CCSD density, CASPT2, CASPT2-K, improved NEVPT2 
  Axel Koslowski         : Symmetry handling                             
  Simone Kossmann        : meta-GGA functionals, TD-DFT gradient, OOMP2, (MP2 Hessian; deprecated post 5.0) 
  Lucas Lang             : DCDCAS, Hyperfine gauge corrections, ICE-SOC+SSC
  Marvin Lechner         : AUTO-CI (C++ implementation), FIC-MRCC        
  Spencer Leger          : CASSCF response                               
  Dagmar Lenk            : GEPOL surface, SMD, ORCA-2-JSON               
  Dimitrios Liakos       : Extrapolation schemes; Compound Job, Property file
  Dimitrios Manganas     : Further ROCIS development; embedding schemes. LFT, Crystal Embedding 
  Dimitrios Pantazis     : SARC Basis sets                               
  Anastasios Papadopoulos: AUTO-CI, single reference methods and gradients 
  Taras Petrenko         : pre 6.0 DFT Hessian and TD-DFT gradient,  ECA, NRVS 
  Petra Pikulova         : Analytic Raman intensities                    
  Peter Pinski           : DLPNO-MP2, DLPNO-MP2 Gradient                 
  Shashank Vittal Rao    : ES-AILFT, MagRelax                            
  Christoph Reimann      : Effective Core Potentials                     
  Marius Retegan         : Local ZFS, SOC                                
  Christoph Riplinger    : Optimizer, TS searches, QM/MM, DLPNO-CCSD(T), (RO)-DLPNO pert. Triples 
  Michael Roemelt        : Original ROCIS implementation, recursive CI coupling coefficients
  Masaaki Saitow         : Open-shell DLPNO-CCSD energy and density      
  Barbara Sandhoefer     : DKH picture change effects                    
  Yorick L. A. Schmerwitz: GMF and freeze-and-release deltaSCF, NEB S-IDPP initial path                    
  Kantharuban Sivalingam : CASSCF convergence/infrastructure, NEVPT2, NEVPT3, NEVPT4(SD), FIC-MRCI and CEPA variants
  Bernardo de Souza      : ESD, SOC TD-DFT                               
  Georgi L. Stoychev     : AutoAux, RI-MP2 NMR, DLPNO-MP2 response, X2C  
  Van Anh Tran           : RI-MP2 g-tensors                              
  Willem Van den Heuvel  : Paramagnetic NMR                              
  Zikuan Wang            : NOTCH, Electric field optimization            
  Frank Wennmohs         : Technical directorship and infrastructure     
  Hang Xu                : AUTO-CI-Response properties                   
                                                                         
[FACCTs GmbH]                                                            
  Markus Bursch, Nicolas Foglia, Miquel Garcia-Rates, Ingolf Harden, Hagen Neugebauer, Anastasios Papadopoulos, 
  Christoph Riplinger, Bernardo de Souza, Georgi L. Stoychev                                                    
                                                                 
  APM, various basis sets, CI-OPT, improved COSX, DLPNO-Multilevel,           
  DOCKER, DRACO, updates on ESD, Fragmentator, GOAT, IRC, LR-CPCM, L-BFGS, MBIS, meta-GGA TD-DFT gradient, ML-optimized integration grids, 
  MM, NACMEs, nearIR, NEB, NEB-TS, NL-DFT gradient (VV10), 2- and 3-layer-ONIOM, interface openCOSMO-RS, QMMM,   
  Crystal-QMMM, RESP, rigid body optimization, SF, symmetry and pop. for TD-DFT, various functionals, SOLVATOR                                   
                                                                         
[Other institutions]                                                     
  V. Asgeirsson          : NEB                                           
  Christoph Bannwarth    : sTDA-DFT, sTD-DFT, PBEh-3c, B97-3c, D3        
  Giovanni Bistoni       : ETS/NOCV, ADLD/ADEX, COVALED                  
  Martin Brehm           : Molecular dynamics                            
  Ronald Cardenas        : ETS/NOCV                                      
  Martina Colucci        : COVALED                                       
  Sebastian Ehlert       : rSCAN, r2SCAN, r2SCAN-3c, D4, dhf basis sets  
  Marvin Friede          : D4 for Fr, Ra, Ac-Lr                          
  Lars Goerigk           : TD-DFT with DH, B97 family of functionals     
  Stefan Grimme          : VdW corrections, initial TS optimization, DFT functionals, gCP, sTDA/sTD-DF 
  Waldemar Hujo          : DFT-NL                                        
  H. Jonsson             : NEB                                           
  Holger Kruse           : gCP                                           
  Marcel Mueller         : wB97X-3c, vDZP basis set                      
  Hagen Neugebauer       : wr2SCAN, Native XTB                           
  Gianluca Regni         : ADLD/ADEX                                     
  Tobias Risthaus        : pre 6.0 range-separated hybrid DFT and stability analysis
  Lukas Wittmann         : regularized MP2, r2SCAN double-hybrids, wr2SCAN        
                                                                         
We gratefully acknowledge several colleagues who have allowed us to      
interface, adapt or use parts of their codes:                            
  Ed Valeev, F. Pavosevic, A. Kumar             : LibInt (2-el integral package), F12 methods 
  Garnet Chan, S. Sharma, J. Yang, R. Olivares  : DMRG                   
  Ulf Ekstrom                                   : XCFun DFT Library      
  Mihaly Kallay                                 : mrcc  (arbitrary order and MRCC methods)
  Frank Weinhold                                : gennbo (NPA and NBO analysis)           
  Simon Mueller                                 : openCOSMO-RS                            
  Christopher J. Cramer and Donald G. Truhlar   : smd solvation model                     
  S Lehtola, MJT Oliveira, MAL Marques          : LibXC Library                           
  Liviu Ungur et al                             : ANISO software                          


 Your calculation uses the libint2 library for the computation of 2-el integrals
 For citations please refer to: http://libint.valeyev.net

 Your ORCA version has been built with support for libXC version: 7.0.0
 For citations please refer to: https://libxc.gitlab.io

 This ORCA versions uses:
   CBLAS   interface :  Fast vector & matrix operations
   LAPACKE interface :  Fast linear algebra routines
   SCALAPACK package :  Parallel linear algebra routines
   Shared memory     :  Shared parallel matrices
   BLAS/LAPACK       :  OpenBLAS 0.3.29  USE64BITINT DYNAMIC_ARCH NO_AFFINITY Zen SINGLE_THREADED
        Core in use  :  Zen
   Copyright (c) 2011-2014, The OpenBLAS Project


  ***********************************
  * Starting time: Sun Aug 31 07:27:04 2025
  * Host name:     node066.cluster
  * Process ID:    1226025
  * Working dir.:  /scratch/53699704/_e0ifd0
  ***********************************

NOTE: MaxCore=2694 MB was set to SCF,MP2,MDCI,CIPSI,MRCI,RASCI and CIS
      => If you want to overwrite this, your respective input block should be placed after the MaxCore statement
================================================================================

================================================================================
                                        WARNINGS
                       Please study these warnings very carefully!
================================================================================


WARNING: The environment variable RSH_COMMAND is not set!
  ===> : All Displacements for the Numerical Hessian or Gradient calculation
         will be started on localhost

WARNING: Geometry Optimization
  ===> : Switching off AutoStart
         For restart on a previous wavefunction, please use MOREAD

Using external energy/gradient program given in input:
  "/groups/kemi/jmni/software/orca-external-tools/umaclient.sh"


WARNING: four-center integrals in TRAH must be done with SHARK!
  ===> : Turning Shark on


================================================================================
                                       INPUT FILE
================================================================================
NAME = input.inp
|  1> # Automatically generated ORCA input
|  2> 
|  3> # Number of cores
|  4> %pal nprocs 95 end
|  5> # RAM per core
|  6> %maxcore 2694
|  7> 
|  8> ! OptTS 
|  9> ! ExtOpt 
| 10> 
| 11> %geom
| 12>   Calc_Hess  true        # get an exact Hessian at the start (required for robust TS search)
| 13>   NumHess    true        # force numerical Hessian (UMA has no analytic Hessian)
| 14>   MaxIter    300         # raise max geometry cycles (default is ≥50; raise as needed)
| 15> end
| 16> 
| 17> %method
| 18>     ProgExt "/groups/kemi/jmni/software/orca-external-tools/umaclient.sh"
| 19>     Ext_Params "-b 127.0.0.1:44661"
| 20>     end
| 21>     %output
| 22>     Print[P_EXT_OUT] 1
| 23>     Print[P_EXT_GRAD] 1
| 24>     end
| 25> %Output
| 26>   JSONPropFile True
| 27> End
| 28> 
| 29> 
| 30> *xyz 0 1 
| 31> C        -1.31829200     -2.05511900      0.53709000
| 32> C        -0.02369800     -1.67331700      0.94703300
| 33> C         1.00045200     -2.61267400      0.72775200
| 34> C         0.77876100     -3.85976200      0.15624200
| 35> C        -0.51268900     -4.21532400     -0.22702400
| 36> C        -1.55148500     -3.31252600     -0.03490400
| 37> H         2.01150800     -2.34200900      1.02452300
| 38> H         1.60395500     -4.55179600      0.01118500
| 39> H        -0.71379300     -5.18508300     -0.67270500
| 40> H        -2.55110600     -3.60258800     -0.32850000
| 41> H        -1.55862400      0.10360000      1.04789500
| 42> B         0.37331800     -0.29150300      1.70001600
| 43> N        -2.41614400     -1.10144500      0.73040300
| 44> C        -3.26756400     -1.38369200      1.97017700
| 45> C        -3.16901500     -0.68894800     -0.52807500
| 46> C        -4.21079800     -0.18875400      2.20823800
| 47> C        -2.35082400     -1.51207900      3.19200900
| 48> C        -4.09871800     -2.68215900      1.91922400
| 49> C        -4.03325900      0.52795200     -0.15124800
| 50> C        -4.04674600     -1.76940700     -1.20028100
| 51> C        -2.17452200     -0.23402000     -1.60037900
| 52> H        -4.87955900     -0.45569400      3.03386600
| 53> H        -3.61953200      0.66906800      2.54411700
| 54> C        -5.00624000      0.23142700      0.97954700
| 55> H        -1.71164500     -2.39697200      3.13542200
| 56> H        -1.70597300     -0.64583500      3.32391000
| 57> H        -2.97677200     -1.60523200      4.08497900
| 58> H        -3.50279000     -3.54266500      1.61022700
| 59> H        -4.45714200     -2.88907100      2.93236800
| 60> H        -4.98254600     -2.61520200      1.28474400
| 61> H        -4.56079900      0.86417200     -1.05039400
| 62> H        -3.36864000      1.34687000      0.15485500
| 63> H        -4.72983900     -1.26544700     -1.89217400
| 64> H        -3.44322700     -2.45550000     -1.79827100
| 65> H        -4.65398600     -2.35647700     -0.51693600
| 66> H        -1.69970300      0.70471500     -1.32472400
| 67> H        -1.40777500     -0.98694800     -1.79933300
| 68> H        -2.72088500     -0.06310100     -2.53312500
| 69> H        -5.59903200      1.12265400      1.21111600
| 70> H        -5.71663800     -0.54888600      0.68072200
| 71> H         1.50020800      0.05460900      1.37867300
| 72> C        -0.65942900      0.98644000      1.32824300
| 73> C        -1.27429900      1.89121200      2.23032500
| 74> C        -1.32327400      3.16565200      1.67256500
| 75> H        -1.67435300      1.60151200      3.19305000
| 76> H        -1.75398200      4.06175000      2.09667200
| 77> H         0.33403900     -0.44757600      2.90717100
| 78> C        -0.69516600      3.06707200      0.43004200
| 79> H        -0.49063400      3.83671400     -0.30335100
| 80> N        -0.31043800      1.80120400      0.22301900
| 81> C         0.60422200      1.40296400     -0.83453200
| 82> H         0.35955900      1.94043500     -1.75360800
| 83> H         1.63319900      1.62581000     -0.53966000
| 84> H         0.52414300      0.33126600     -1.00689600
| 85> *
| 86> 
| 87> 
| 88>                          ****END OF INPUT****
================================================================================

                       *****************************
                       * Geometry Optimization Run *
                       *****************************

Geometry optimization settings:
Update method            Update   .... Bofill
Choice of coordinates    CoordSys .... (2022) Redundant Internals
Initial Hessian          InHess   .... Almloef's Model
Max. no of cycles        MaxIter  .... 300

Convergence Tolerances:
Energy Change            TolE     ....  5.0000e-06 Eh
Max. Gradient            TolMAXG  ....  3.0000e-04 Eh/bohr
RMS Gradient             TolRMSG  ....  1.0000e-04 Eh/bohr
Max. Displacement        TolMAXD  ....  4.0000e-03 bohr
RMS Displacement         TolRMSD  ....  2.0000e-03 bohr
Strict Convergence                .... False

------------------------------------------------------------------------------
                        ORCA OPTIMIZATION COORDINATE SETUP
------------------------------------------------------------------------------

The optimization will be done in redundant internal coordinates (2022)
Making redundant internal coordinates   ...  (2022 redundants) done
Following TS mode number                ...     0
Evaluating the initial hessian          ...  (Is done on the fly) done
Evaluating the coordinates              ...  done
Calculating the B-matrix                .... done
Calculating the G-matrix                .... done
The number of degrees of freedom        ....  286

    -----------------------------------------------------------------
                    Redundant Internal Coordinates


    -----------------------------------------------------------------
         Definition                    Initial Value    d2E/dq (diagonal element)
    -----------------------------------------------------------------
      1. B(C   1,C   0)                  1.4106         0.000000   
      2. B(C   2,C   1)                  1.4069         0.000000   
      3. B(C   3,C   2)                  1.3896         0.000000   
      4. B(C   4,C   3)                  1.3933         0.000000   
      5. B(C   5,C   4)                  1.3896         0.000000   
      6. B(C   5,C   0)                  1.4009         0.000000   
      7. B(H   6,C   2)                  1.0879         0.000000   
      8. B(H   7,C   3)                  1.0867         0.000000   
      9. B(H   8,C   4)                  1.0861         0.000000   
     10. B(H   9,C   5)                  1.0815         0.000000   
     11. B(B  11,C   1)                  1.6230         0.000000   
     12. B(N  12,C   0)                  1.4670         0.000000   
     13. B(C  13,N  12)                  1.5302         0.000000   
     14. B(C  14,N  12)                  1.5234         0.000000   
     15. B(C  15,C  13)                  1.5409         0.000000   
     16. B(C  16,C  13)                  1.5329         0.000000   
     17. B(C  17,C  13)                  1.5425         0.000000   
     18. B(C  18,C  14)                  1.5394         0.000000   
     19. B(C  19,C  14)                  1.5459         0.000000   
     20. B(C  20,C  14)                  1.5316         0.000000   
     21. B(H  21,C  15)                  1.0955         0.000000   
     22. B(H  22,C  15)                  1.0947         0.000000   
     23. B(C  23,C  18)                  1.5210         0.000000   
     24. B(C  23,C  15)                  1.5228         0.000000   
     25. B(H  24,C  16)                  1.0931         0.000000   
     26. B(H  25,C  16)                  1.0879         0.000000   
     27. B(H  26,C  16)                  1.0945         0.000000   
     28. B(H  27,C  17)                  1.0914         0.000000   
     29. B(H  28,C  17)                  1.0944         0.000000   
     30. B(H  29,C  17)                  1.0900         0.000000   
     31. B(H  30,C  18)                  1.0954         0.000000   
     32. B(H  31,C  18)                  1.0982         0.000000   
     33. B(H  32,C  19)                  1.0951         0.000000   
     34. B(H  33,C  19)                  1.0920         0.000000   
     35. B(H  34,C  19)                  1.0864         0.000000   
     36. B(H  35,C  20)                  1.0875         0.000000   
     37. B(H  36,C  20)                  1.0929         0.000000   
     38. B(H  37,C  20)                  1.0944         0.000000   
     39. B(H  38,C  23)                  1.0951         0.000000   
     40. B(H  39,C  23)                  1.0967         0.000000   
     41. B(H  40,B  11)                  1.2219         0.000000   
     42. B(C  41,B  11)                  1.6846         0.000000   
     43. B(C  41,H  10)                  1.2910         0.000000   
     44. B(C  42,C  41)                  1.4179         0.000000   
     45. B(C  43,C  42)                  1.3920         0.000000   
     46. B(H  44,C  42)                  1.0820         0.000000   
     47. B(H  45,H  38)                  4.9201         0.000000   
     48. B(H  45,C  43)                  1.0809         0.000000   
     49. B(H  46,B  11)                  1.2178         0.000000   
     50. B(C  47,C  43)                  1.3957         0.000000   
     51. B(H  48,C  47)                  1.0826         0.000000   
     52. B(N  49,C  47)                  1.3391         0.000000   
     53. B(N  49,C  41)                  1.4167         0.000000   
     54. B(C  50,N  49)                  1.4538         0.000000   
     55. B(H  51,C  50)                  1.0924         0.000000   
     56. B(H  52,C  50)                  1.0933         0.000000   
     57. B(H  53,C  50)                  1.0884         0.000000   
     58. A(C   1,C   0,C   5)          120.9545         0.000000   
     59. A(C   5,C   0,N  12)          120.8444         0.000000   
     60. A(C   1,C   0,N  12)          118.2007         0.000000   
     61. A(C   0,C   1,C   2)          116.2359         0.000000   
     62. A(C   2,C   1,B  11)          117.5622         0.000000   
     63. A(C   0,C   1,B  11)          126.1419         0.000000   
     64. A(C   1,C   2,H   6)          117.8973         0.000000   
     65. A(C   3,C   2,H   6)          118.9294         0.000000   
     66. A(C   1,C   2,C   3)          123.1732         0.000000   
     67. A(C   2,C   3,C   4)          119.3435         0.000000   
     68. A(C   4,C   3,H   7)          120.3073         0.000000   
     69. A(C   2,C   3,H   7)          120.3492         0.000000   
     70. A(C   3,C   4,H   8)          120.8240         0.000000   
     71. A(C   5,C   4,H   8)          119.8955         0.000000   
     72. A(C   3,C   4,C   5)          119.2805         0.000000   
     73. A(C   0,C   5,C   4)          121.0059         0.000000   
     74. A(C   0,C   5,H   9)          120.3600         0.000000   
     75. A(C   4,C   5,H   9)          118.6319         0.000000   
     76. A(H  40,B  11,H  46)          109.0709         0.000000   
     77. A(C   1,B  11,H  46)          110.0526         0.000000   
     78. A(C  41,B  11,H  46)          107.2294         0.000000   
     79. A(H  40,B  11,C  41)          107.0061         0.000000   
     80. A(C   1,B  11,H  40)          110.1678         0.000000   
     81. A(C   1,B  11,C  41)          113.1740         0.000000   
     82. A(C   0,N  12,C  13)          113.7809         0.000000   
     83. A(C  13,N  12,C  14)          116.3762         0.000000   
     84. A(C   0,N  12,C  14)          115.9132         0.000000   
     85. A(C  16,C  13,C  17)          106.1448         0.000000   
     86. A(N  12,C  13,C  17)          115.3597         0.000000   
     87. A(C  15,C  13,C  17)          109.1511         0.000000   
     88. A(C  15,C  13,C  16)          107.9325         0.000000   
     89. A(N  12,C  13,C  16)          109.1763         0.000000   
     90. A(N  12,C  13,C  15)          108.8283         0.000000   
     91. A(N  12,C  14,C  20)          109.7490         0.000000   
     92. A(C  18,C  14,C  19)          109.8883         0.000000   
     93. A(N  12,C  14,C  19)          116.7808         0.000000   
     94. A(N  12,C  14,C  18)          106.8150         0.000000   
     95. A(C  19,C  14,C  20)          105.7738         0.000000   
     96. A(C  18,C  14,C  20)          107.5246         0.000000   
     97. A(H  22,C  15,C  23)          108.2695         0.000000   
     98. A(H  21,C  15,C  23)          110.8819         0.000000   
     99. A(C  13,C  15,C  23)          114.1469         0.000000   
    100. A(H  21,C  15,H  22)          106.8240         0.000000   
    101. A(C  13,C  15,H  22)          108.9340         0.000000   
    102. A(C  13,C  15,H  21)          107.5274         0.000000   
    103. A(H  25,C  16,H  26)          107.9291         0.000000   
    104. A(H  24,C  16,H  26)          107.9247         0.000000   
    105. A(C  13,C  16,H  26)          108.3862         0.000000   
    106. A(H  24,C  16,H  25)          107.7137         0.000000   
    107. A(C  13,C  16,H  25)          112.6082         0.000000   
    108. A(C  13,C  16,H  24)          112.1017         0.000000   
    109. A(H  28,C  17,H  29)          106.5536         0.000000   
    110. A(H  27,C  17,H  29)          109.0486         0.000000   
    111. A(C  13,C  17,H  29)          113.8539         0.000000   
    112. A(H  27,C  17,H  28)          106.9696         0.000000   
    113. A(C  13,C  17,H  28)          107.7602         0.000000   
    114. A(C  13,C  17,H  27)          112.2621         0.000000   
    115. A(H  30,C  18,H  31)          106.9406         0.000000   
    116. A(C  23,C  18,H  31)          108.9836         0.000000   
    117. A(C  14,C  18,H  31)          108.5382         0.000000   
    118. A(C  23,C  18,H  30)          111.2257         0.000000   
    119. A(C  14,C  18,H  30)          108.1853         0.000000   
    120. A(C  14,C  18,C  23)          112.7694         0.000000   
    121. A(H  32,C  19,H  34)          107.3023         0.000000   
    122. A(C  14,C  19,H  34)          114.9312         0.000000   
    123. A(H  32,C  19,H  33)          106.7308         0.000000   
    124. A(C  14,C  19,H  33)          111.3118         0.000000   
    125. A(C  14,C  19,H  32)          107.8940         0.000000   
    126. A(H  33,C  19,H  34)          108.2897         0.000000   
    127. A(H  36,C  20,H  37)          107.6194         0.000000   
    128. A(H  35,C  20,H  37)          107.4091         0.000000   
    129. A(C  14,C  20,H  37)          108.5981         0.000000   
    130. A(H  35,C  20,H  36)          109.5432         0.000000   
    131. A(C  14,C  20,H  36)          112.2327         0.000000   
    132. A(C  14,C  20,H  35)          111.2496         0.000000   
    133. A(C  15,C  23,C  18)          108.6336         0.000000   
    134. A(H  38,C  23,H  39)          106.6190         0.000000   
    135. A(C  18,C  23,H  39)          110.5181         0.000000   
    136. A(C  15,C  23,H  39)          111.2150         0.000000   
    137. A(C  18,C  23,H  38)          110.1713         0.000000   
    138. A(C  15,C  23,H  38)          109.6750         0.000000   
    139. A(C  42,C  41,N  49)          103.6604         0.000000   
    140. A(B  11,C  41,N  49)          117.2205         0.000000   
    141. A(H  10,C  41,N  49)          113.2945         0.000000   
    142. A(B  11,C  41,C  42)          127.5542         0.000000   
    143. A(H  10,C  41,C  42)          105.8126         0.000000   
    144. A(H  10,C  41,B  11)           87.4870         0.000000   
    145. A(C  43,C  42,H  44)          126.0590         0.000000   
    146. A(C  41,C  42,H  44)          123.7482         0.000000   
    147. A(C  41,C  42,C  43)          110.1543         0.000000   
    148. A(H  45,C  43,C  47)          125.9556         0.000000   
    149. A(C  42,C  43,C  47)          106.0338         0.000000   
    150. A(C  42,C  43,H  45)          128.0106         0.000000   
    151. A(H  48,C  47,N  49)          120.8646         0.000000   
    152. A(C  43,C  47,N  49)          109.4920         0.000000   
    153. A(C  43,C  47,H  48)          129.6333         0.000000   
    154. A(C  47,N  49,C  50)          123.5141         0.000000   
    155. A(C  41,N  49,C  50)          124.3969         0.000000   
    156. A(C  41,N  49,C  47)          110.6255         0.000000   
    157. A(H  52,C  50,H  53)          108.2184         0.000000   
    158. A(H  51,C  50,H  53)          109.5557         0.000000   
    159. A(N  49,C  50,H  53)          109.7931         0.000000   
    160. A(H  51,C  50,H  52)          109.7181         0.000000   
    161. A(N  49,C  50,H  52)          109.8820         0.000000   
    162. A(N  49,C  50,H  51)          109.6525         0.000000   
    163. D(B  11,C   1,C   0,N  12)      3.6375         0.000000   
    164. D(C   2,C   1,C   0,C   5)      0.9614         0.000000   
    165. D(B  11,C   1,C   0,C   5)   -176.1379         0.000000   
    166. D(C   2,C   1,C   0,N  12)   -179.2631         0.000000   
    167. D(C   3,C   2,C   1,B  11)    176.6401         0.000000   
    168. D(H   6,C   2,C   1,C   0)    179.3900         0.000000   
    169. D(H   6,C   2,C   1,B  11)     -3.2522         0.000000   
    170. D(C   3,C   2,C   1,C   0)     -0.7177         0.000000   
    171. D(H   7,C   3,C   2,H   6)      0.1106         0.000000   
    172. D(C   4,C   3,C   2,C   1)      0.1087         0.000000   
    173. D(C   4,C   3,C   2,H   6)    180.0000         0.000000   
    174. D(H   7,C   3,C   2,C   1)   -179.7806         0.000000   
    175. D(H   8,C   4,C   3,C   2)   -179.7833         0.000000   
    176. D(C   5,C   4,C   3,C   2)      0.2782         0.000000   
    177. D(C   5,C   4,C   3,H   7)   -179.8324         0.000000   
    178. D(H   8,C   4,C   3,H   7)      0.1061         0.000000   
    179. D(H   9,C   5,C   4,H   8)      0.5720         0.000000   
    180. D(C   0,C   5,C   4,C   3)     -0.0230         0.000000   
    181. D(C   0,C   5,C   4,H   8)   -179.9620         0.000000   
    182. D(H   9,C   5,C   0,N  12)     -0.9377         0.000000   
    183. D(H   9,C   5,C   0,C   1)    178.8318         0.000000   
    184. D(H   9,C   5,C   4,C   3)   -179.4890         0.000000   
    185. D(C   4,C   5,C   0,C   1)     -0.6250         0.000000   
    186. D(C   4,C   5,C   0,N  12)    179.6055         0.000000   
    187. D(H  46,B  11,C   1,C   0)     91.6279         0.000000   
    188. D(C  41,B  11,C   1,C   2)    154.6135         0.000000   
    189. D(C  41,B  11,C   1,C   0)    -28.3215         0.000000   
    190. D(H  40,B  11,C   1,C   2)     34.8681         0.000000   
    191. D(H  40,B  11,C   1,C   0)   -148.0668         0.000000   
    192. D(C  13,N  12,C   0,C   5)     80.1713         0.000000   
    193. D(C  13,N  12,C   0,C   1)    -99.6044         0.000000   
    194. D(C  14,N  12,C   0,C   5)    -58.7533         0.000000   
    195. D(C  14,N  12,C   0,C   1)    121.4710         0.000000   
    196. D(C  17,C  13,N  12,C   0)    -67.1546         0.000000   
    197. D(C  16,C  13,N  12,C  14)   -169.0466         0.000000   
    198. D(C  16,C  13,N  12,C   0)     52.2275         0.000000   
    199. D(C  15,C  13,N  12,C  14)    -51.4659         0.000000   
    200. D(C  15,C  13,N  12,C   0)    169.8082         0.000000   
    201. D(C  20,C  14,N  12,C   0)    -51.0003         0.000000   
    202. D(C  19,C  14,N  12,C  13)    -68.5322         0.000000   
    203. D(C  19,C  14,N  12,C   0)     69.3134         0.000000   
    204. D(C  18,C  14,N  12,C  13)     54.8766         0.000000   
    205. D(C  18,C  14,N  12,C   0)   -167.2778         0.000000   
    206. D(H  22,C  15,C  13,C  17)    162.9729         0.000000   
    207. D(H  22,C  15,C  13,C  16)     48.0263         0.000000   
    208. D(H  22,C  15,C  13,N  12)    -70.3404         0.000000   
    209. D(H  21,C  15,C  13,C  17)     47.5544         0.000000   
    210. D(H  21,C  15,C  13,N  12)    174.2411         0.000000   
    211. D(H  21,C  15,C  13,C  16)    -67.3922         0.000000   
    212. D(H  25,C  16,C  13,C  15)    -63.5122         0.000000   
    213. D(H  25,C  16,C  13,N  12)     54.6316         0.000000   
    214. D(H  24,C  16,C  13,C  17)     57.9168         0.000000   
    215. D(H  24,C  16,C  13,C  15)    174.8307         0.000000   
    216. D(H  25,C  16,C  13,C  17)    179.5740         0.000000   
    217. D(H  24,C  16,C  13,N  12)    -67.0256         0.000000   
    218. D(H  28,C  17,C  13,C  16)     45.3683         0.000000   
    219. D(H  28,C  17,C  13,C  15)    -70.7259         0.000000   
    220. D(H  27,C  17,C  13,C  16)    -72.1654         0.000000   
    221. D(H  27,C  17,C  13,C  15)    171.7403         0.000000   
    222. D(H  27,C  17,C  13,N  12)     48.8745         0.000000   
    223. D(H  28,C  17,C  13,N  12)    166.4083         0.000000   
    224. D(C  23,C  18,C  14,C  19)     69.2033         0.000000   
    225. D(C  23,C  18,C  14,N  12)    -58.3779         0.000000   
    226. D(H  30,C  18,C  14,C  20)     60.4259         0.000000   
    227. D(H  30,C  18,C  14,C  19)    -54.2438         0.000000   
    228. D(H  30,C  18,C  14,N  12)    178.1750         0.000000   
    229. D(C  23,C  18,C  14,C  20)   -176.1270         0.000000   
    230. D(H  33,C  19,C  14,C  20)     43.1193         0.000000   
    231. D(H  33,C  19,C  14,C  18)    158.9004         0.000000   
    232. D(H  33,C  19,C  14,N  12)    -79.2845         0.000000   
    233. D(H  32,C  19,C  14,C  20)    -73.6677         0.000000   
    234. D(H  32,C  19,C  14,C  18)     42.1133         0.000000   
    235. D(H  32,C  19,C  14,N  12)    163.9285         0.000000   
    236. D(H  36,C  20,C  14,C  19)    -72.6807         0.000000   
    237. D(H  36,C  20,C  14,C  18)    169.9385         0.000000   
    238. D(H  36,C  20,C  14,N  12)     54.1094         0.000000   
    239. D(H  35,C  20,C  14,C  19)    164.1783         0.000000   
    240. D(H  35,C  20,C  14,C  18)     46.7975         0.000000   
    241. D(H  35,C  20,C  14,N  12)    -69.0316         0.000000   
    242. D(H  38,C  23,C  18,H  30)    -58.1474         0.000000   
    243. D(H  38,C  23,C  18,C  14)   -179.8912         0.000000   
    244. D(C  15,C  23,C  18,H  31)    -60.6492         0.000000   
    245. D(C  15,C  23,C  18,H  30)   -178.3060         0.000000   
    246. D(C  15,C  23,C  18,C  14)     59.9502         0.000000   
    247. D(H  38,C  23,C  15,H  22)    -54.7709         0.000000   
    248. D(H  38,C  23,C  15,H  21)     62.1120         0.000000   
    249. D(H  38,C  23,C  15,C  13)   -176.2689         0.000000   
    250. D(C  18,C  23,C  15,H  22)     65.6953         0.000000   
    251. D(C  18,C  23,C  15,H  21)   -177.4218         0.000000   
    252. D(H  38,C  23,C  18,H  31)     59.5094         0.000000   
    253. D(C  18,C  23,C  15,C  13)    -55.8026         0.000000   
    254. D(C  42,C  41,B  11,H  46)     10.9658         0.000000   
    255. D(C  42,C  41,B  11,H  40)   -105.9434         0.000000   
    256. D(C  42,C  41,B  11,C   1)    132.5161         0.000000   
    257. D(H  10,C  41,B  11,H  46)    -97.1119         0.000000   
    258. D(H  10,C  41,B  11,H  40)    145.9789         0.000000   
    259. D(H  10,C  41,B  11,C   1)     24.4384         0.000000   
    260. D(H  44,C  42,C  41,B  11)    -39.1205         0.000000   
    261. D(H  44,C  42,C  41,H  10)     60.1014         0.000000   
    262. D(C  43,C  42,C  41,N  49)      1.6997         0.000000   
    263. D(C  43,C  42,C  41,B  11)    143.0183         0.000000   
    264. D(C  43,C  42,C  41,H  10)   -117.7598         0.000000   
    265. D(C  47,C  43,C  42,H  44)   -179.6979         0.000000   
    266. D(C  47,C  43,C  42,C  41)     -1.8978         0.000000   
    267. D(H  45,C  43,C  42,H  44)      0.3089         0.000000   
    268. D(H  45,C  43,C  42,C  41)    178.1091         0.000000   
    269. D(N  49,C  47,C  43,H  45)   -178.6734         0.000000   
    270. D(N  49,C  47,C  43,C  42)      1.3333         0.000000   
    271. D(H  48,C  47,C  43,H  45)      2.4989         0.000000   
    272. D(H  48,C  47,C  43,C  42)   -177.4944         0.000000   
    273. D(C  50,N  49,C  47,C  43)   -166.9945         0.000000   
    274. D(C  41,N  49,C  47,H  48)    178.6658         0.000000   
    275. D(C  41,N  49,C  47,C  43)     -0.2824         0.000000   
    276. D(C  50,N  49,C  41,B  11)     19.5731         0.000000   
    277. D(C  50,N  49,C  41,H  10)    -80.0861         0.000000   
    278. D(C  47,N  49,C  41,C  42)     -0.8591         0.000000   
    279. D(C  47,N  49,C  41,B  11)   -146.9978         0.000000   
    280. D(C  50,N  49,C  47,H  48)     11.9536         0.000000   
    281. D(C  47,N  49,C  41,H  10)    113.3429         0.000000   
    282. D(H  53,C  50,N  49,C  41)     32.8641         0.000000   
    283. D(H  52,C  50,N  49,C  47)     78.8398         0.000000   
    284. D(H  52,C  50,N  49,C  41)    -86.0488         0.000000   
    285. D(H  51,C  50,N  49,C  47)    -41.8318         0.000000   
    286. D(H  51,C  50,N  49,C  41)    153.2795         0.000000   
    -----------------------------------------------------------------

Number of atoms                         .... 54
Number of degrees of freedom            .... 286


         *************************************************************
         *                GEOMETRY OPTIMIZATION CYCLE   1            *
         *************************************************************
---------------------------------
CARTESIAN COORDINATES (ANGSTROEM)
---------------------------------
  C     -1.318292   -2.055119    0.537090
  C     -0.023698   -1.673317    0.947033
  C      1.000452   -2.612674    0.727752
  C      0.778761   -3.859762    0.156242
  C     -0.512689   -4.215324   -0.227024
  C     -1.551485   -3.312526   -0.034904
  H      2.011508   -2.342009    1.024523
  H      1.603955   -4.551796    0.011185
  H     -0.713793   -5.185083   -0.672705
  H     -2.551106   -3.602588   -0.328500
  H     -1.558624    0.103600    1.047895
  B      0.373318   -0.291503    1.700016
  N     -2.416144   -1.101445    0.730403
  C     -3.267564   -1.383692    1.970177
  C     -3.169015   -0.688948   -0.528075
  C     -4.210798   -0.188754    2.208238
  C     -2.350824   -1.512079    3.192009
  C     -4.098718   -2.682159    1.919224
  C     -4.033259    0.527952   -0.151248
  C     -4.046746   -1.769407   -1.200281
  C     -2.174522   -0.234020   -1.600379
  H     -4.879559   -0.455694    3.033866
  H     -3.619532    0.669068    2.544117
  C     -5.006240    0.231427    0.979547
  H     -1.711645   -2.396972    3.135422
  H     -1.705973   -0.645835    3.323910
  H     -2.976772   -1.605232    4.084979
  H     -3.502790   -3.542665    1.610227
  H     -4.457142   -2.889071    2.932368
  H     -4.982546   -2.615202    1.284744
  H     -4.560799    0.864172   -1.050394
  H     -3.368640    1.346870    0.154855
  H     -4.729839   -1.265447   -1.892174
  H     -3.443227   -2.455500   -1.798271
  H     -4.653986   -2.356477   -0.516936
  H     -1.699703    0.704715   -1.324724
  H     -1.407775   -0.986948   -1.799333
  H     -2.720885   -0.063101   -2.533125
  H     -5.599032    1.122654    1.211116
  H     -5.716638   -0.548886    0.680722
  H      1.500208    0.054609    1.378673
  C     -0.659429    0.986440    1.328243
  C     -1.274299    1.891212    2.230325
  C     -1.323274    3.165652    1.672565
  H     -1.674353    1.601512    3.193050
  H     -1.753982    4.061750    2.096672
  H      0.334039   -0.447576    2.907171
  C     -0.695166    3.067072    0.430042
  H     -0.490634    3.836714   -0.303351
  N     -0.310438    1.801204    0.223019
  C      0.604222    1.402964   -0.834532
  H      0.359559    1.940435   -1.753608
  H      1.633199    1.625810   -0.539660
  H      0.524143    0.331266   -1.006896

----------------------------
CARTESIAN COORDINATES (A.U.)
----------------------------
  NO LB      ZA    FRAG     MASS         X           Y           Z
   0 C     6.0000    0    12.011   -2.491211   -3.883612    1.014953
   1 C     6.0000    0    12.011   -0.044783   -3.162111    1.789633
   2 C     6.0000    0    12.011    1.890580   -4.937238    1.375252
   3 C     6.0000    0    12.011    1.471645   -7.293893    0.295255
   4 C     6.0000    0    12.011   -0.968842   -7.965808   -0.429013
   5 C     6.0000    0    12.011   -2.931882   -6.259767   -0.065959
   6 H     1.0000    0     1.008    3.801199   -4.425756    1.936068
   7 H     1.0000    0     1.008    3.031036   -8.601648    0.021137
   8 H     1.0000    0     1.008   -1.348873   -9.798387   -1.271228
   9 H     1.0000    0     1.008   -4.820892   -6.807905   -0.620775
  10 H     1.0000    0     1.008   -2.945373    0.195776    1.980235
  11 B     5.0000    0    10.810    0.705469   -0.550861    3.212565
  12 N     7.0000    0    14.007   -4.565850   -2.081429    1.380262
  13 C     6.0000    0    12.011   -6.174801   -2.614799    3.723095
  14 C     6.0000    0    12.011   -5.988570   -1.301923   -0.997917
  15 C     6.0000    0    12.011   -7.957255   -0.356693    4.172965
  16 C     6.0000    0    12.011   -4.442414   -2.857415    6.032023
  17 C     6.0000    0    12.011   -7.745455   -5.068546    3.626808
  18 C     6.0000    0    12.011   -7.621755    0.997685   -0.285817
  19 C     6.0000    0    12.011   -7.647242   -3.343695   -2.268202
  20 C     6.0000    0    12.011   -4.109251   -0.442234   -3.024278
  21 H     1.0000    0     1.008   -9.221030   -0.861137    5.733176
  22 H     1.0000    0     1.008   -6.839924    1.264355    4.807684
  23 C     6.0000    0    12.011   -9.460423    0.437334    1.851076
  24 H     1.0000    0     1.008   -3.234540   -4.529621    5.925089
  25 H     1.0000    0     1.008   -3.223822   -1.220451    6.281280
  26 H     1.0000    0     1.008   -5.625284   -3.033449    7.719492
  27 H     1.0000    0     1.008   -6.619314   -6.694667    3.042888
  28 H     1.0000    0     1.008   -8.422778   -5.459553    5.541372
  29 H     1.0000    0     1.008   -9.415647   -4.942016    2.427814
  30 H     1.0000    0     1.008   -8.618661    1.633048   -1.984957
  31 H     1.0000    0     1.008   -6.365807    2.545215    0.292634
  32 H     1.0000    0     1.008   -8.938100   -2.391348   -3.575691
  33 H     1.0000    0     1.008   -6.506756   -4.640223   -3.398240
  34 H     1.0000    0     1.008   -8.794759   -4.453096   -0.976867
  35 H     1.0000    0     1.008   -3.211973    1.331718   -2.503366
  36 H     1.0000    0     1.008   -2.660309   -1.865061   -3.400247
  37 H     1.0000    0     1.008   -5.141727   -0.119244   -4.786913
  38 H     1.0000    0     1.008  -10.580637    2.121509    2.288678
  39 H     1.0000    0     1.008  -10.802880   -1.037244    1.286378
  40 H     1.0000    0     1.008    2.834982    0.103196    2.605314
  41 C     6.0000    0    12.011   -1.246140    1.864101    2.510016
  42 C     6.0000    0    12.011   -2.408076    3.573873    4.214703
  43 C     6.0000    0    12.011   -2.500625    5.982215    3.160690
  44 H     1.0000    0     1.008   -3.164069    3.026419    6.033990
  45 H     1.0000    0     1.008   -3.314546    7.675595    3.962136
  46 H     1.0000    0     1.008    0.631242   -0.845796    5.493757
  47 C     6.0000    0    12.011   -1.313673    5.795926    0.812662
  48 H     1.0000    0     1.008   -0.927164    7.250339   -0.573250
  49 N     7.0000    0    14.007   -0.586643    3.403782    0.421445
  50 C     6.0000    0    12.011    1.141814    2.651218   -1.577037
  51 H     1.0000    0     1.008    0.679468    3.666891   -3.313839
  52 H     1.0000    0     1.008    3.086299    3.072336   -1.019810
  53 H     1.0000    0     1.008    0.990487    0.626002   -1.902758

--------------------------------
INTERNAL COORDINATES (ANGSTROEM)
--------------------------------
 C      0   0   0     0.000000000000     0.00000000     0.00000000
 C      1   0   0     1.410602585879     0.00000000     0.00000000
 C      2   1   0     1.406896923342   116.23594684     0.00000000
 C      3   2   1     1.389603921744   123.17321224   359.28230153
 C      4   3   2     1.393255276358   119.34345126     0.10868178
 C      5   4   3     1.389622773568   119.28053570     0.27819776
 H      3   2   1     1.087918564876   117.89734593   179.38997129
 H      4   3   2     1.086691183382   120.34916747   180.21935096
 H      5   4   3     1.086051053431   120.82397463   180.21669410
 H      6   5   4     1.081469703090   118.63189489   180.51104614
 H      1   2   3     2.231311035963    76.73007936   189.31563734
 B      2   1   3     1.622964889682   126.14189845   182.90067659
 N      1   2   3     1.467018414386   118.20074059   180.73685858
 C     13   1   2     1.530234935062   113.78086679   260.39560935
 C     13   1   2     1.523396006997   115.91316675   121.47096039
 C     14  13   1     1.540856983085   108.82825968   169.80819676
 C     14  13   1     1.532895588614   109.17626547    52.22749931
 C     14  13   1     1.542540025417   115.35970064   292.84541706
 C     15  13   1     1.539403095185   106.81503139   192.72220684
 C     15  13   1     1.545853895256   116.78080056    69.31337954
 C     15  13   1     1.531604283309   109.74900168   308.99972656
 H     16  14  13     1.095518066079   107.52736239   174.24112059
 H     16  14  13     1.094654634614   108.93404381   289.65962601
 C     19  15  13     1.520959050734   112.76944451   301.62207729
 H     17  14  13     1.093063357752   112.10171951   292.97440175
 H     17  14  13     1.087938120271   112.60816878    54.63155032
 H     17  14  13     1.094478780522   108.38618538   173.96021534
 H     18  14  13     1.091366072053   112.26210688    48.87450429
 H     18  14  13     1.094413589214   107.76020614   166.40825107
 H     18  14  13     1.090045890700   113.85391661   284.36083190
 H     19  15  13     1.095356503297   108.18530932   178.17498496
 H     19  15  13     1.098200415450   108.53822564    62.47603003
 H     20  15  13     1.095129057097   107.89400601   163.92853759
 H     20  15  13     1.092039755737   111.31179489   280.71554308
 H     20  15  13     1.086440054271   114.93120698    44.27623275
 H     21  15  13     1.087502718163   111.24961683   290.96840928
 H     21  15  13     1.092878872204   112.23268028    54.10940165
 H     21  15  13     1.094413510903   108.59807579   172.96262091
 H     24  19  15     1.095131098341   110.17125003   180.10881198
 H     24  19  15     1.096745219729   110.51810583   297.67772531
 H     12   2   1     1.221857566287   110.16775735   211.93315099
 C     11   1   2     1.290950469510   129.51728219     9.08950809
 C     42  11   1     1.417896125817   105.81258448   210.98669079
 C     43  42  11     1.392010086826   110.15428017   242.24016392
 H     43  42  11     1.082039148340   123.74816642    60.10142575
 H     44  43  42     1.080910613472   128.01059301   178.10908889
 H     12   2   1     1.217836120008   110.05258545    91.62792086
 C     44  43  42     1.395743916911   106.03377331   358.10224539
 H     48  44  43     1.082611398257   129.63328111   182.50559302
 N     48  44  43     1.339140003860   109.49198752     1.33325369
 C     50  48  44     1.453826719661   123.51405646   193.00546081
 H     51  50  48     1.092444851325   109.65251339   318.16817043
 H     51  50  48     1.093345097684   109.88201276    78.83984743
 H     51  50  48     1.088420230399   109.79312909   197.75281708

---------------------------
INTERNAL COORDINATES (A.U.)
---------------------------
 C      0   0   0     0.000000000000     0.00000000     0.00000000
 C      1   0   0     2.665652571113     0.00000000     0.00000000
 C      2   1   0     2.658649883773   116.23594684     0.00000000
 C      3   2   1     2.625970846718   123.17321224   359.28230153
 C      4   3   2     2.632870906958   119.34345126     0.10868178
 C      5   4   3     2.626006471504   119.28053570     0.27819776
 H      3   2   1     2.055868143624   117.89734593   179.38997129
 H      4   3   2     2.053548728739   120.34916747   180.21935096
 H      5   4   3     2.052339058441   120.82397463   180.21669410
 H      6   5   4     2.043681560973   118.63189489   180.51104614
 H      1   2   3     4.216566777566    76.73007936   189.31563734
 B      2   1   3     3.066959166469   126.14189845   182.90067659
 N      1   2   3     2.772263036610   118.20074059   180.73685858
 C     13   1   2     2.891724947826   113.78086679   260.39560935
 C     13   1   2     2.878801246733   115.91316675   121.47096039
 C     14  13   1     2.911797709570   108.82825968   169.80819676
 C     14  13   1     2.896752854377   109.17626547    52.22749931
 C     14  13   1     2.914978198650   115.35970064   292.84541706
 C     15  13   1     2.909050259610   106.81503139   192.72220684
 C     15  13   1     2.921240505089   116.78080056    69.31337954
 C     15  13   1     2.894312640994   109.74900168   308.99972656
 H     16  14  13     2.070229119652   107.52736239   174.24112059
 H     16  14  13     2.068597470647   108.93404381   289.65962601
 C     19  15  13     2.874196066797   112.76944451   301.62207729
 H     17  14  13     2.065590393175   112.10171951   292.97440175
 H     17  14  13     2.055905097965   112.60816878    54.63155032
 H     17  14  13     2.068265154575   108.38618538   173.96021534
 H     18  14  13     2.062382988034   112.26210688    48.87450429
 H     18  14  13     2.068141960856   107.76020614   166.40825107
 H     18  14  13     2.059888206830   113.85391661   284.36083190
 H     19  15  13     2.069923810242   108.18530932   178.17498496
 H     19  15  13     2.075298025359   108.53822564    62.47603003
 H     20  15  13     2.069493999213   107.89400601   163.92853759
 H     20  15  13     2.063656065697   111.31179489   280.71554308
 H     20  15  13     2.053074163495   114.93120698    44.27623275
 H     21  15  13     2.055082307222   111.24961683   290.96840928
 H     21  15  13     2.065241766014   112.23268028    54.10940165
 H     21  15  13     2.068141812869   108.59807579   172.96262091
 H     24  19  15     2.069497856605   110.17125003   180.10881198
 H     24  19  15     2.072548103975   110.51810583   297.67772531
 H     12   2   1     2.308976174942   110.16775735   211.93315099
 C     11   1   2     2.439542839832   129.51728219     9.08950809
 C     42  11   1     2.679435364143   105.81258448   210.98669079
 C     43  42  11     2.630517839757   110.15428017   242.24016392
 H     43  42  11     2.044757656545   123.74816642    60.10142575
 H     44  43  42     2.042625034711   128.01059301   178.10908889
 H     12   2   1     2.301376742811   110.05258545    91.62792086
 C     44  43  42     2.637573756048   106.03377331   358.10224539
 H     48  44  43     2.045839052168   129.63328111   182.50559302
 N     48  44  43     2.530607862273   109.49198752     1.33325369
 C     50  48  44     2.747334346337   123.51405646   193.00546081
 H     51  50  48     2.064421585416   109.65251339   318.16817043
 H     51  50  48     2.066122804488   109.88201276    78.83984743
 H     51  50  48     2.056816154073   109.79312909   197.75281708

Calling /groups/kemi/jmni/software/orca-external-tools/umaclient.sh input_EXT.extinp.tmp -b 127.0.0.1:44661  ... 

Total time:   4.457 seconds

External program completed successfully in 4.496 sec

-------------------------------------------------   --------------------
FINAL SINGLE POINT ENERGY (From external program)      -915.007849369900
-------------------------------------------------   --------------------


------------------
CARTESIAN GRADIENT
------------------

   1   C   :   -0.005296775    0.003921628    0.000867416
   2   C   :    0.003420174    0.001878940    0.001836594
   3   C   :    0.001545934    0.001389736    0.000991453
   4   C   :    0.003341197   -0.002707251   -0.000776046
   5   C   :   -0.000963404   -0.002938868   -0.001068958
   6   C   :   -0.001551633   -0.001043981   -0.000668533
   7   H   :    0.002418593   -0.000029048    0.000542661
   8   H   :    0.001863124   -0.001681448   -0.000318497
   9   H   :   -0.000332502   -0.002067165   -0.001143770
  10   H   :   -0.001624312   -0.000481528   -0.000493727
  11   H   :    0.001187305    0.001921190   -0.000455587
  12   B   :   -0.003474227    0.002410589   -0.001889587
  13   N   :    0.002626100    0.000184461   -0.000629110
  14   C   :    0.000371627   -0.000673208    0.000727470
  15   C   :   -0.000058941    0.000602226   -0.001237163
  16   C   :   -0.000281543    0.001062023   -0.000267749
  17   C   :   -0.000142353   -0.000310871   -0.000000353
  18   C   :    0.000510812    0.000327432    0.000230632
  19   C   :   -0.000451033    0.000383920    0.000491319
  20   C   :    0.000430955    0.000313136    0.000210658
  21   C   :   -0.000073681   -0.000306390    0.000363732
  22   H   :   -0.001269508   -0.000193976    0.001215679
  23   H   :    0.000311871    0.001515839    0.000647337
  24   C   :   -0.000488416    0.000728213    0.000278836
  25   H   :    0.001054622   -0.001743478    0.000871936
  26   H   :    0.000276156    0.001091961    0.001291510
  27   H   :   -0.000247142   -0.000015890    0.002112016
  28   H   :    0.000503228   -0.002212862   -0.000453405
  29   H   :   -0.001054340   -0.001061723    0.001709545
  30   H   :   -0.001704004   -0.000155565   -0.001475186
  31   H   :   -0.001041612    0.000863108   -0.001261643
  32   H   :    0.000638111    0.001283921    0.000261861
  33   H   :   -0.001572870    0.000227984   -0.001307260
  34   H   :    0.000609444   -0.001611965   -0.001692349
  35   H   :   -0.001480148   -0.001334515    0.001468382
  36   H   :    0.000764674    0.001567860   -0.000015918
  37   H   :    0.001521839   -0.000587353   -0.001097488
  38   H   :   -0.000299837    0.000406418   -0.001956798
  39   H   :   -0.000964463    0.001880415    0.000573928
  40   H   :   -0.001280413   -0.001310703   -0.000611632
  41   H   :    0.002816842    0.000496035   -0.000004360
  42   C   :   -0.001263390   -0.005697088   -0.000825358
  43   C   :    0.000942336    0.001896450    0.002698492
  44   C   :   -0.001204156    0.000275945    0.001639708
  45   H   :   -0.001163200   -0.000670896    0.001743622
  46   H   :   -0.001293977    0.002054864    0.001052215
  47   H   :    0.000564695   -0.000904194    0.002847955
  48   C   :    0.000263421    0.002123599   -0.001678002
  49   H   :    0.000239209    0.001356249   -0.001436537
  50   N   :    0.002143239   -0.002936704   -0.002102443
  51   C   :   -0.002043879    0.000511749    0.000202187
  52   H   :    0.000010385    0.000725341   -0.001716001
  53   H   :    0.002362418    0.000947743    0.000704540
  54   H   :   -0.000116549   -0.001672304   -0.000998222

Difference to translation invariance:
           :    0.0000000030    0.0000000015   -0.0000000007

Difference to rotation invariance:
           :   -0.0000000233   -0.0000000245   -0.0000000271

Norm of the Cartesian gradient     ...    0.0191578226
RMS gradient                       ...    0.0015051807
MAX gradient                       ...    0.0056970879

----------------------------------------------------------------------------
                           ORCA NUMERICAL FREQUENCIES
                              (95-process run)
----------------------------------------------------------------------------

Number of atoms                ... 54
Central differences            ... NOT used
Translation invariance         ... used
Number of displacements        ... 162 - 3
Numerical increment            ... 5.000e-03 bohr
IR-spectrum generation         ... on
Raman-spectrum generation      ... off
Surface Crossing Hessian       ... off

The output will be reduced. Please look at the following files:
SCF program output             ... >input.lastscf
Integral program output        ... >input.lastint
Gradient program output        ... >input.lastgrad
Dipole moment program output   ... >input.lastmom

List of participating nodes    ...  input.hostnames

	<< Calculating gradient on displaced geometry  56 (of 160) >>
	<< Calculating gradient on displaced geometry   5 (of 160) >>
	<< Calculating gradient on displaced geometry  51 (of 160) >>
	<< Calculating gradient on displaced geometry  34 (of 160) >>
	<< Calculating gradient on displaced geometry  13 (of 160) >>
	<< Calculating gradient on displaced geometry  59 (of 160) >>
	<< Calculating gradient on displaced geometry  86 (of 160) >>
	<< Calculating gradient on displaced geometry  37 (of 160) >>
	<< Calculating gradient on displaced geometry  75 (of 160) >>
	<< Calculating gradient on displaced geometry  94 (of 160) >>
	<< Calculating gradient on displaced geometry  40 (of 160) >>
	<< Calculating gradient on displaced geometry  82 (of 160) >>
	<< Calculating gradient on displaced geometry  49 (of 160) >>
	<< Calculating gradient on displaced geometry   2 (of 160) >>
	<< Calculating gradient on displaced geometry  26 (of 160) >>
	<< Calculating gradient on displaced geometry  36 (of 160) >>
	<< Calculating gradient on displaced geometry  15 (of 160) >>
	<< Calculating gradient on displaced geometry  71 (of 160) >>
	<< Calculating gradient on displaced geometry  42 (of 160) >>
	<< Calculating gradient on displaced geometry  12 (of 160) >>
	<< Calculating gradient on displaced geometry  74 (of 160) >>
	<< Calculating gradient on displaced geometry   3 (of 160) >>
	<< Calculating gradient on displaced geometry  30 (of 160) >>
	<< Calculating gradient on displaced geometry  32 (of 160) >>
	<< Calculating gradient on displaced geometry  11 (of 160) >>
	<< Calculating gradient on displaced geometry  68 (of 160) >>
	<< Calculating gradient on displaced geometry  39 (of 160) >>
	<< Calculating gradient on displaced geometry  25 (of 160) >>
	<< Calculating gradient on displaced geometry  17 (of 160) >>
	<< Calculating gradient on displaced geometry  50 (of 160) >>
	<< Calculating gradient on displaced geometry  67 (of 160) >>
	<< Calculating gradient on displaced geometry  45 (of 160) >>
	<< Calculating gradient on displaced geometry  85 (of 160) >>
	<< Calculating gradient on displaced geometry  19 (of 160) >>
	<< Calculating gradient on displaced geometry  65 (of 160) >>
	<< Calculating gradient on displaced geometry  88 (of 160) >>
	<< Calculating gradient on displaced geometry  41 (of 160) >>
	<< Calculating gradient on displaced geometry  58 (of 160) >>
	<< Calculating gradient on displaced geometry  81 (of 160) >>
	<< Calculating gradient on displaced geometry  18 (of 160) >>
	<< Calculating gradient on displaced geometry  47 (of 160) >>
	<< Calculating gradient on displaced geometry  66 (of 160) >>
	<< Calculating gradient on displaced geometry  14 (of 160) >>
	<< Calculating gradient on displaced geometry  53 (of 160) >>
	<< Calculating gradient on displaced geometry   8 (of 160) >>
	<< Calculating gradient on displaced geometry  91 (of 160) >>
	<< Calculating gradient on displaced geometry  31 (of 160) >>
	<< Calculating gradient on displaced geometry  27 (of 160) >>
	<< Calculating gradient on displaced geometry  43 (of 160) >>
	<< Calculating gradient on displaced geometry  73 (of 160) >>
	<< Calculating gradient on displaced geometry  22 (of 160) >>
	<< Calculating gradient on displaced geometry  54 (of 160) >>
	<< Calculating gradient on displaced geometry  46 (of 160) >>
	<< Calculating gradient on displaced geometry   6 (of 160) >>
	<< Calculating gradient on displaced geometry  33 (of 160) >>
	<< Calculating gradient on displaced geometry  48 (of 160) >>
	<< Calculating gradient on displaced geometry  28 (of 160) >>
	<< Calculating gradient on displaced geometry  78 (of 160) >>
	<< Calculating gradient on displaced geometry  70 (of 160) >>
	<< Calculating gradient on displaced geometry  44 (of 160) >>
	<< Calculating gradient on displaced geometry  20 (of 160) >>
	<< Calculating gradient on displaced geometry  16 (of 160) >>
	<< Calculating gradient on displaced geometry  21 (of 160) >>
	<< Calculating gradient on displaced geometry  64 (of 160) >>
	<< Calculating gradient on displaced geometry  80 (of 160) >>
	<< Calculating gradient on displaced geometry   9 (of 160) >>
	<< Calculating gradient on displaced geometry  35 (of 160) >>
	<< Calculating gradient on displaced geometry  61 (of 160) >>
	<< Calculating gradient on displaced geometry  29 (of 160) >>
	<< Calculating gradient on displaced geometry  92 (of 160) >>
	<< Calculating gradient on displaced geometry  23 (of 160) >>
	<< Calculating gradient on displaced geometry  57 (of 160) >>
	<< Calculating gradient on displaced geometry  62 (of 160) >>
	<< Calculating gradient on displaced geometry   7 (of 160) >>
	<< Calculating gradient on displaced geometry  90 (of 160) >>
	<< Calculating gradient on displaced geometry  38 (of 160) >>
	<< Calculating gradient on displaced geometry  83 (of 160) >>
	<< Calculating gradient on displaced geometry  77 (of 160) >>
	<< Calculating gradient on displaced geometry  79 (of 160) >>
	<< Calculating gradient on displaced geometry  60 (of 160) >>
	<< Calculating gradient on displaced geometry  76 (of 160) >>
	<< Calculating gradient on displaced geometry  24 (of 160) >>
	<< Calculating gradient on displaced geometry   4 (of 160) >>
	<< Calculating gradient on displaced geometry  72 (of 160) >>
	<< Calculating gradient on displaced geometry  89 (of 160) >>
	<< Calculating gradient on displaced geometry  10 (of 160) >>
	<< Calculating gradient on displaced geometry  93 (of 160) >>
	<< Calculating gradient on displaced geometry  63 (of 160) >>
	<< Calculating gradient on displaced geometry  84 (of 160) >>
	<< Calculating gradient on displaced geometry  95 (of 160) >>
	<< Calculating gradient on displaced geometry   1 (of 160) >>
	<< Calculating gradient on displaced geometry  87 (of 160) >>
	<< Calculating gradient on displaced geometry  52 (of 160) >>
	<< Calculating gradient on displaced geometry  55 (of 160) >>
	<< Calculating gradient on displaced geometry  69 (of 160) >>
	<< Calculating gradient on displaced geometry  96 (of 160) >>
	<< Calculating gradient on displaced geometry  97 (of 160) >>
	<< Calculating gradient on displaced geometry  98 (of 160) >>
	<< Calculating gradient on displaced geometry  99 (of 160) >>
	<< Calculating gradient on displaced geometry 100 (of 160) >>
	<< Calculating gradient on displaced geometry 101 (of 160) >>
	<< Calculating gradient on displaced geometry 102 (of 160) >>
	<< Calculating gradient on displaced geometry 103 (of 160) >>
	<< Calculating gradient on displaced geometry 104 (of 160) >>
	<< Calculating gradient on displaced geometry 105 (of 160) >>
	<< Calculating gradient on displaced geometry 106 (of 160) >>
	<< Calculating gradient on displaced geometry 107 (of 160) >>
	<< Calculating gradient on displaced geometry 108 (of 160) >>
	<< Calculating gradient on displaced geometry 109 (of 160) >>
	<< Calculating gradient on displaced geometry 110 (of 160) >>
	<< Calculating gradient on displaced geometry 111 (of 160) >>
	<< Calculating gradient on displaced geometry 112 (of 160) >>
	<< Calculating gradient on displaced geometry 113 (of 160) >>
	<< Calculating gradient on displaced geometry 114 (of 160) >>
	<< Calculating gradient on displaced geometry 115 (of 160) >>
	<< Calculating gradient on displaced geometry 116 (of 160) >>
	<< Calculating gradient on displaced geometry 117 (of 160) >>
	<< Calculating gradient on displaced geometry 118 (of 160) >>
	<< Calculating gradient on displaced geometry 119 (of 160) >>
	<< Calculating gradient on displaced geometry 120 (of 160) >>
	<< Calculating gradient on displaced geometry 121 (of 160) >>
	<< Calculating gradient on displaced geometry 122 (of 160) >>
	<< Calculating gradient on displaced geometry 123 (of 160) >>
	<< Calculating gradient on displaced geometry 124 (of 160) >>
	<< Calculating gradient on displaced geometry 125 (of 160) >>
	<< Calculating gradient on displaced geometry 126 (of 160) >>
	<< Calculating gradient on displaced geometry 127 (of 160) >>
	<< Calculating gradient on displaced geometry 128 (of 160) >>
	<< Calculating gradient on displaced geometry 129 (of 160) >>
	<< Calculating gradient on displaced geometry 130 (of 160) >>
	<< Calculating gradient on displaced geometry 131 (of 160) >>
	<< Calculating gradient on displaced geometry 132 (of 160) >>
	<< Calculating gradient on displaced geometry 133 (of 160) >>
	<< Calculating gradient on displaced geometry 134 (of 160) >>
	<< Calculating gradient on displaced geometry 135 (of 160) >>
	<< Calculating gradient on displaced geometry 136 (of 160) >>
	<< Calculating gradient on displaced geometry 137 (of 160) >>
	<< Calculating gradient on displaced geometry 138 (of 160) >>
	<< Calculating gradient on displaced geometry 139 (of 160) >>
	<< Calculating gradient on displaced geometry 140 (of 160) >>
	<< Calculating gradient on displaced geometry 141 (of 160) >>
	<< Calculating gradient on displaced geometry 142 (of 160) >>
	<< Calculating gradient on displaced geometry 143 (of 160) >>
	<< Calculating gradient on displaced geometry 144 (of 160) >>
	<< Calculating gradient on displaced geometry 145 (of 160) >>
	<< Calculating gradient on displaced geometry 146 (of 160) >>
	<< Calculating gradient on displaced geometry 147 (of 160) >>
	<< Calculating gradient on displaced geometry 148 (of 160) >>
	<< Calculating gradient on displaced geometry 149 (of 160) >>
	<< Calculating gradient on displaced geometry 150 (of 160) >>
	<< Calculating gradient on displaced geometry 151 (of 160) >>
	<< Calculating gradient on displaced geometry 152 (of 160) >>
	<< Calculating gradient on displaced geometry 153 (of 160) >>
	<< Calculating gradient on displaced geometry 154 (of 160) >>
	<< Calculating gradient on displaced geometry 155 (of 160) >>
	<< Calculating gradient on displaced geometry 156 (of 160) >>
	<< Calculating gradient on displaced geometry 157 (of 160) >>
	<< Calculating gradient on displaced geometry 158 (of 160) >>
	<< Calculating gradient on displaced geometry 159 (of 160) >>
	<< Calculating gradient on displaced geometry 160 (of 160) >>

The first frequency considered to be a vibration is 7
The total number of vibrations considered is 155


--------------------------
THERMOCHEMISTRY AT 298.15K
--------------------------

Temperature         ...   298.15 K
Pressure            ...     1.00 atm
Total Mass          ...   310.29 AMU
Quasi RRHO          ...     True
Cut-Off Frequency   ...     1.00 cm^-1

Throughout the following assumptions are being made:
  (1) The electronic state is orbitally nondegenerate
  (2) There are no thermally accessible electronically excited states
  (3) Hindered rotations indicated by low frequency modes are not
      treated as such but are treated as vibrations and this may
      cause some error
  (4) All equations used are the standard statistical mechanics
      equations for an ideal gas
  (5) All vibrations are strictly harmonic

freq.      61.64  E(vib)   ...       0.51 
freq.      89.06  E(vib)   ...       0.47 
freq.      92.95  E(vib)   ...       0.47 
freq.     109.89  E(vib)   ...       0.45 
freq.     120.41  E(vib)   ...       0.44 
freq.     143.29  E(vib)   ...       0.41 
freq.     157.42  E(vib)   ...       0.40 
freq.     172.98  E(vib)   ...       0.38 
freq.     196.45  E(vib)   ...       0.36 
freq.     210.16  E(vib)   ...       0.34 
freq.     223.86  E(vib)   ...       0.33 
freq.     239.66  E(vib)   ...       0.31 
freq.     264.71  E(vib)   ...       0.29 
freq.     279.17  E(vib)   ...       0.28 
freq.     280.78  E(vib)   ...       0.28 
freq.     298.90  E(vib)   ...       0.26 
freq.     301.92  E(vib)   ...       0.26 
freq.     309.51  E(vib)   ...       0.26 
freq.     320.23  E(vib)   ...       0.25 
freq.     326.36  E(vib)   ...       0.24 
freq.     330.49  E(vib)   ...       0.24 
freq.     335.26  E(vib)   ...       0.24 
freq.     357.15  E(vib)   ...       0.22 
freq.     367.15  E(vib)   ...       0.22 
freq.     387.69  E(vib)   ...       0.20 
freq.     407.11  E(vib)   ...       0.19 
freq.     409.66  E(vib)   ...       0.19 
freq.     417.14  E(vib)   ...       0.18 
freq.     452.36  E(vib)   ...       0.16 
freq.     474.56  E(vib)   ...       0.15 
freq.     490.72  E(vib)   ...       0.15 
freq.     505.60  E(vib)   ...       0.14 
freq.     529.36  E(vib)   ...       0.13 
freq.     557.44  E(vib)   ...       0.12 
freq.     577.23  E(vib)   ...       0.11 
freq.     588.04  E(vib)   ...       0.10 
freq.     596.25  E(vib)   ...       0.10 
freq.     612.01  E(vib)   ...       0.10 
freq.     653.85  E(vib)   ...       0.08 
freq.     687.44  E(vib)   ...       0.07 
freq.     708.84  E(vib)   ...       0.07 
freq.     741.87  E(vib)   ...       0.06 
freq.     747.62  E(vib)   ...       0.06 
freq.     773.54  E(vib)   ...       0.05 
freq.     778.41  E(vib)   ...       0.05 
freq.     803.84  E(vib)   ...       0.05 
freq.     808.22  E(vib)   ...       0.05 
freq.     817.31  E(vib)   ...       0.05 
freq.     839.61  E(vib)   ...       0.04 
freq.     875.81  E(vib)   ...       0.04 
freq.     887.90  E(vib)   ...       0.04 
freq.     893.11  E(vib)   ...       0.03 
freq.     909.80  E(vib)   ...       0.03 
freq.     914.26  E(vib)   ...       0.03 
freq.     922.57  E(vib)   ...       0.03 
freq.     926.09  E(vib)   ...       0.03 
freq.     944.36  E(vib)   ...       0.03 
freq.     946.53  E(vib)   ...       0.03 
freq.     956.15  E(vib)   ...       0.03 
freq.     971.53  E(vib)   ...       0.03 
freq.     981.51  E(vib)   ...       0.02 
freq.     990.08  E(vib)   ...       0.02 
freq.    1002.53  E(vib)   ...       0.02 
freq.    1005.66  E(vib)   ...       0.02 
freq.    1014.64  E(vib)   ...       0.02 
freq.    1019.96  E(vib)   ...       0.02 
freq.    1027.84  E(vib)   ...       0.02 
freq.    1033.39  E(vib)   ...       0.02 
freq.    1041.28  E(vib)   ...       0.02 
freq.    1065.30  E(vib)   ...       0.02 
freq.    1070.68  E(vib)   ...       0.02 
freq.    1079.36  E(vib)   ...       0.02 
freq.    1085.33  E(vib)   ...       0.02 
freq.    1107.44  E(vib)   ...       0.02 
freq.    1109.57  E(vib)   ...       0.02 
freq.    1118.45  E(vib)   ...       0.01 
freq.    1133.76  E(vib)   ...       0.01 
freq.    1143.95  E(vib)   ...       0.01 
freq.    1151.31  E(vib)   ...       0.01 
freq.    1167.01  E(vib)   ...       0.01 
freq.    1169.58  E(vib)   ...       0.01 
freq.    1183.84  E(vib)   ...       0.01 
freq.    1198.53  E(vib)   ...       0.01 
freq.    1207.99  E(vib)   ...       0.01 
freq.    1219.63  E(vib)   ...       0.01 
freq.    1228.16  E(vib)   ...       0.01 
freq.    1237.67  E(vib)   ...       0.01 
freq.    1242.71  E(vib)   ...       0.01 
freq.    1253.65  E(vib)   ...       0.01 
freq.    1266.60  E(vib)   ...       0.01 
freq.    1271.29  E(vib)   ...       0.01 
freq.    1277.63  E(vib)   ...       0.01 
freq.    1296.57  E(vib)   ...       0.01 
freq.    1299.15  E(vib)   ...       0.01 
freq.    1327.38  E(vib)   ...       0.01 
freq.    1357.65  E(vib)   ...       0.01 
freq.    1370.95  E(vib)   ...       0.01 
freq.    1380.45  E(vib)   ...       0.01 
freq.    1388.77  E(vib)   ...       0.00 
freq.    1393.31  E(vib)   ...       0.00 
freq.    1398.77  E(vib)   ...       0.00 
freq.    1405.02  E(vib)   ...       0.00 
freq.    1418.62  E(vib)   ...       0.00 
freq.    1427.80  E(vib)   ...       0.00 
freq.    1446.21  E(vib)   ...       0.00 
freq.    1457.50  E(vib)   ...       0.00 
freq.    1466.90  E(vib)   ...       0.00 
freq.    1469.03  E(vib)   ...       0.00 
freq.    1472.31  E(vib)   ...       0.00 
freq.    1474.02  E(vib)   ...       0.00 
freq.    1477.18  E(vib)   ...       0.00 
freq.    1480.52  E(vib)   ...       0.00 
freq.    1483.95  E(vib)   ...       0.00 
freq.    1486.52  E(vib)   ...       0.00 
freq.    1492.88  E(vib)   ...       0.00 
freq.    1495.09  E(vib)   ...       0.00 
freq.    1498.25  E(vib)   ...       0.00 
freq.    1500.66  E(vib)   ...       0.00 
freq.    1503.29  E(vib)   ...       0.00 
freq.    1513.89  E(vib)   ...       0.00 
freq.    1520.87  E(vib)   ...       0.00 
freq.    1525.50  E(vib)   ...       0.00 
freq.    1568.83  E(vib)   ...       0.00 
freq.    1613.07  E(vib)   ...       0.00 
freq.    1645.27  E(vib)   ...       0.00 
freq.    2387.72  E(vib)   ...       0.00 
freq.    2425.51  E(vib)   ...       0.00 
freq.    3010.21  E(vib)   ...       0.00 
freq.    3024.90  E(vib)   ...       0.00 
freq.    3032.65  E(vib)   ...       0.00 
freq.    3036.61  E(vib)   ...       0.00 
freq.    3039.10  E(vib)   ...       0.00 
freq.    3044.21  E(vib)   ...       0.00 
freq.    3047.05  E(vib)   ...       0.00 
freq.    3049.96  E(vib)   ...       0.00 
freq.    3059.24  E(vib)   ...       0.00 
freq.    3066.10  E(vib)   ...       0.00 
freq.    3079.02  E(vib)   ...       0.00 
freq.    3099.59  E(vib)   ...       0.00 
freq.    3101.74  E(vib)   ...       0.00 
freq.    3103.08  E(vib)   ...       0.00 
freq.    3105.69  E(vib)   ...       0.00 
freq.    3107.88  E(vib)   ...       0.00 
freq.    3126.30  E(vib)   ...       0.00 
freq.    3138.64  E(vib)   ...       0.00 
freq.    3146.77  E(vib)   ...       0.00 
freq.    3154.71  E(vib)   ...       0.00 
freq.    3158.43  E(vib)   ...       0.00 
freq.    3167.54  E(vib)   ...       0.00 
freq.    3177.81  E(vib)   ...       0.00 
freq.    3184.47  E(vib)   ...       0.00 
freq.    3206.16  E(vib)   ...       0.00 
freq.    3216.07  E(vib)   ...       0.00 
freq.    3230.53  E(vib)   ...       0.00 
freq.    3236.75  E(vib)   ...       0.00 

------------
INNER ENERGY
------------

The inner energy is: U= E(el) + E(ZPE) + E(vib) + E(rot) + E(trans)
    E(el)   - is the total energy from the electronic structure calculation
              = E(kin-el) + E(nuc-el) + E(el-el) + E(nuc-nuc)
    E(ZPE)  - the the zero temperature vibrational energy from the frequency calculation
    E(vib)  - the the finite temperature correction to E(ZPE) due to population
              of excited vibrational states
    E(rot)  - is the rotational thermal energy
    E(trans)- is the translational thermal energy

Summary of contributions to the inner energy U:
Electronic energy                ...   -915.00784937 Eh
Zero point energy                ...      0.47210513 Eh     296.25 kcal/mol
Thermal vibrational correction   ...      0.01834860 Eh      11.51 kcal/mol
Thermal rotational correction    ...      0.00141627 Eh       0.89 kcal/mol
Thermal translational correction ...      0.00141627 Eh       0.89 kcal/mol
-----------------------------------------------------------------------
Total thermal energy                   -914.51456309 Eh


Summary of corrections to the electronic energy:
(perhaps to be used in another calculation)
Total thermal correction                  0.02118114 Eh      13.29 kcal/mol
Non-thermal (ZPE) correction              0.47210513 Eh     296.25 kcal/mol
-----------------------------------------------------------------------
Total correction                          0.49328628 Eh     309.54 kcal/mol


--------
ENTHALPY
--------

The enthalpy is H = U + kB*T
                kB is Boltzmann's constant
Total thermal energy              ...   -914.51456309 Eh 
Thermal Enthalpy correction       ...      0.00094421 Eh       0.59 kcal/mol
-----------------------------------------------------------------------
Total Enthalpy                    ...   -914.51361888 Eh


WARNING (ORCA/SYM): The number of Z matrix atoms does not agree with
the number of centers in the basis set. The point group will therefore
be determined without considering basis set information.


Note: Only C1 symmetry has been detected, increase convergence thresholds 
      if your molecule has a higher symmetry. Symmetry factor of 1.0 is   
      used for the rotational entropy correction. 
 

Note: Rotational entropy computed according to Herzberg 
Infrared and Raman Spectra, Chapter V,1, Van Nostrand Reinhold, 1945 
Point Group:  C1, Symmetry Number:   1  
Rotational constants in cm-1:     0.011190     0.009494     0.007225 

Vibrational entropy computed according to the QRRHO of S. Grimme
Chem.Eur.J. 2012 18 9955 using a reference frequency of 100.0 cm-1


-------
ENTROPY
-------

The entropy contributions are T*S = T*(S(el)+S(vib)+S(rot)+S(trans))
     S(el)   - electronic entropy
     S(vib)  - vibrational entropy
     S(rot)  - rotational entropy
     S(trans)- translational entropy
The entropies will be listed as multiplied by the temperature to get
units of energy

Electronic entropy                ...      0.00000000 Eh      0.00 kcal/mol
Vibrational entropy               ...      0.03038399 Eh     19.07 kcal/mol
Rotational entropy                ...      0.01615790 Eh     10.14 kcal/mol
Translational entropy             ...      0.02047495 Eh     12.85 kcal/mol
-----------------------------------------------------------------------
Final entropy term                ...      0.06701684 Eh     42.05 kcal/mol

In case the symmetry of your molecule has not been determined correctly
or in case you have a reason to use a different symmetry number we print 
out the resulting rotational entropy values for sn=1,12:

 non-linear molecules -----------------------------------
|  sn= 1 | S(rot)=       0.01615790 Eh     10.14 kcal/mol|
|  sn= 2 | S(rot)=       0.01550344 Eh      9.73 kcal/mol|
|  sn= 3 | S(rot)=       0.01512061 Eh      9.49 kcal/mol|
|  sn= 4 | S(rot)=       0.01484898 Eh      9.32 kcal/mol|
|  sn= 5 | S(rot)=       0.01463830 Eh      9.19 kcal/mol|
|  sn= 6 | S(rot)=       0.01446615 Eh      9.08 kcal/mol|
|  sn= 7 | S(rot)=       0.01432061 Eh      8.99 kcal/mol|
|  sn= 8 | S(rot)=       0.01419453 Eh      8.91 kcal/mol|
[...]
  H     -1.426118   -1.007736   -1.788399
  H     -2.719697   -0.046611   -2.508065
  H     -5.620566    1.085173    1.199266
  H     -5.708943   -0.583834    0.677236
  H      1.472413    0.056989    1.360402
  C     -0.674665    0.997593    1.323582
  C     -1.286828    1.898399    2.221214
  C     -1.294932    3.179445    1.679550
  H     -1.696295    1.611038    3.177146
  H     -1.702644    4.079210    2.109171
  H      0.317297   -0.441348    2.892627
  C     -0.655854    3.080195    0.448171
  H     -0.419328    3.852078   -0.268944
  N     -0.302010    1.810502    0.231466
  C      0.610889    1.393773   -0.819354
  H      0.360570    1.909880   -1.745908
  H      1.637715    1.619259   -0.534162
  H      0.529561    0.320890   -0.963584

----------------------------
CARTESIAN COORDINATES (A.U.)
----------------------------
  NO LB      ZA    FRAG     MASS         X           Y           Z
   0 C     6.0000    0    12.011   -2.514285   -3.887566    1.012717
   1 C     6.0000    0    12.011   -0.084032   -3.148018    1.767238
   2 C     6.0000    0    12.011    1.856996   -4.898315    1.334238
   3 C     6.0000    0    12.011    1.441759   -7.248745    0.267118
   4 C     6.0000    0    12.011   -0.990411   -7.942449   -0.425683
   5 C     6.0000    0    12.011   -2.956862   -6.258486   -0.051248
   6 H     1.0000    0     1.008    3.760459   -4.364749    1.874028
   7 H     1.0000    0     1.008    3.003383   -8.540108   -0.022507
   8 H     1.0000    0     1.008   -1.362327   -9.779099   -1.247006
   9 H     1.0000    0     1.008   -4.843994   -6.819922   -0.578650
  10 H     1.0000    0     1.008   -2.949900    0.191192    1.983455
  11 B     5.0000    0    10.810    0.678691   -0.556205    3.199530
  12 N     7.0000    0    14.007   -4.590731   -2.092201    1.382178
  13 C     6.0000    0    12.011   -6.181560   -2.616409    3.712489
  14 C     6.0000    0    12.011   -5.997443   -1.318717   -0.984568
  15 C     6.0000    0    12.011   -7.965701   -0.375493    4.161082
  16 C     6.0000    0    12.011   -4.431886   -2.832646    5.998189
  17 C     6.0000    0    12.011   -7.730889   -5.072957    3.640000
  18 C     6.0000    0    12.011   -7.637589    0.967169   -0.286265
  19 C     6.0000    0    12.011   -7.638768   -3.350759   -2.271116
  20 C     6.0000    0    12.011   -4.109949   -0.458029   -2.991255
  21 H     1.0000    0     1.008   -9.212313   -0.875148    5.729637
  22 H     1.0000    0     1.008   -6.848134    1.248310    4.773909
  23 C     6.0000    0    12.011   -9.473727    0.389613    1.840612
  24 H     1.0000    0     1.008   -3.221186   -4.494828    5.876710
  25 H     1.0000    0     1.008   -3.214190   -1.194486    6.204463
  26 H     1.0000    0     1.008   -5.597271   -3.002197    7.691326
  27 H     1.0000    0     1.008   -6.581676   -6.685898    3.088150
  28 H     1.0000    0     1.008   -8.407887   -5.432972    5.554111
  29 H     1.0000    0     1.008   -9.389817   -4.977285    2.433430
  30 H     1.0000    0     1.008   -8.626631    1.591497   -1.987440
  31 H     1.0000    0     1.008   -6.393669    2.516456    0.298330
  32 H     1.0000    0     1.008   -8.863937   -2.392946   -3.627473
  33 H     1.0000    0     1.008   -6.478447   -4.670703   -3.339110
  34 H     1.0000    0     1.008   -8.839214   -4.421238   -1.004537
  35 H     1.0000    0     1.008   -3.182354    1.282895   -2.434118
  36 H     1.0000    0     1.008   -2.694972   -1.904345   -3.379585
  37 H     1.0000    0     1.008   -5.139483   -0.088083   -4.739556
  38 H     1.0000    0     1.008  -10.621330    2.050680    2.266284
  39 H     1.0000    0     1.008  -10.788340   -1.103286    1.279791
  40 H     1.0000    0     1.008    2.782458    0.107694    2.570787
  41 C     6.0000    0    12.011   -1.274932    1.885177    2.501207
  42 C     6.0000    0    12.011   -2.431753    3.587454    4.197486
  43 C     6.0000    0    12.011   -2.447067    6.008279    3.173890
  44 H     1.0000    0     1.008   -3.205532    3.044420    6.003936
  45 H     1.0000    0     1.008   -3.217531    7.708589    3.985755
  46 H     1.0000    0     1.008    0.599604   -0.834027    5.466273
  47 C     6.0000    0    12.011   -1.239385    5.820724    0.846920
  48 H     1.0000    0     1.008   -0.792415    7.279372   -0.508230
  49 N     7.0000    0    14.007   -0.570716    3.421353    0.437408
  50 C     6.0000    0    12.011    1.154412    2.633850   -1.548354
  51 H     1.0000    0     1.008    0.681379    3.609150   -3.299288
  52 H     1.0000    0     1.008    3.094834    3.059957   -1.009419
  53 H     1.0000    0     1.008    1.000725    0.606395   -1.820910

--------------------------------
INTERNAL COORDINATES (ANGSTROEM)
--------------------------------
 C      0   0   0     0.000000000000     0.00000000     0.00000000
 C      1   0   0     1.402305765313     0.00000000     0.00000000
 C      2   1   0     1.401931871034   116.16785076     0.00000000
 C      3   2   1     1.383541759032   122.97592385   358.92168824
 C      4   3   2     1.387680752330   119.53463754     0.15218476
 C      5   4   3     1.384267815511   119.28207082     0.45064215
 H      3   2   1     1.084392071227   117.74137394   179.11656201
 H      4   3   2     1.083220543389   120.24675101   180.26607164
 H      5   4   3     1.082703994105   120.80477866   180.60224076
 H      6   5   4     1.078616957727   118.79208903   180.57953215
 H      1   2   3     2.230615823871    76.06404373   189.61832801
 B      2   1   3     1.618166390275   126.77339909   183.20287636
 N      1   2   3     1.465683970450   117.94664967   181.26160491
 C     13   1   2     1.518644321384   113.92168647   260.15184439
 C     13   1   2     1.513354816506   115.70179735   120.83621754
 C     14  13   1     1.534257815795   109.00008473   169.92131790
 C     14  13   1     1.527530667620   108.70244405    52.47654082
 C     14  13   1     1.537376283621   115.45559659   293.25778918
 C     15  13   1     1.533972910038   106.99155594   192.67577693
 C     15  13   1     1.540837336711   117.01246332    69.15257029
 C     15  13   1     1.527316786427   109.53405899   309.02683431
 H     16  14  13     1.092729977006   107.57795102   174.57186593
 H     16  14  13     1.092369576140   108.70955046   290.05888339
 C     19  15  13     1.517971654542   112.45807362   301.73236326
 H     17  14  13     1.090079465261   111.71523825   293.07763984
 H     17  14  13     1.085638839627   112.30684969    54.01143560
 H     17  14  13     1.091386112233   108.28273167   173.88583460
 H     18  14  13     1.087945921391   111.83737433    49.49379055
 H     18  14  13     1.091152353653   107.43138983   166.86383123
 H     18  14  13     1.086683596829   113.95889305   284.91240502
 H     19  15  13     1.092464199840   108.12174378   178.29110606
 H     19  15  13     1.095969113090   108.54559497    62.42907357
 H     20  15  13     1.091971966486   107.52808176   166.12918482
 H     20  15  13     1.088254864824   111.05964463   282.82501531
 H     20  15  13     1.083356168521   114.96606895    46.42698593
 H     21  15  13     1.084703956969   111.11488055   292.62926198
 H     21  15  13     1.090257955920   111.76760713    55.50347004
 H     21  15  13     1.091357396526   108.44652494   174.44565274
 H     24  19  15     1.091867239015   110.29708610   180.72331131
 H     24  19  15     1.093679513988   110.57233180   298.23433677
 H     12   2   1     1.213872407931   110.22325759   212.07961513
 C     11   1   2     1.290061000727   130.56202636     9.18888364
 C     42  11   1     1.411360753714   106.29406881   210.78647961
 C     43  42  11     1.390878548601   110.04112209   239.53842689
 H     43  42  11     1.078909707848   123.92647304    58.65881721
 H     44  43  42     1.077209478966   128.03926816   178.93441657
 H     12   2   1     1.209209157613   110.66799063    90.41871641
 C     44  43  42     1.390887105917   106.04422074   358.68884093
 H     48  44  43     1.079815153087   129.61197070   182.75025364
 N     48  44  43     1.335771621421   109.46119536     1.27829726
 C     50  48  44     1.453020972215   123.80504869   192.78475532
 H     51  50  48     1.089737660782   109.55744409   315.59001419
 H     51  50  48     1.089289382502   110.09251173    76.61401927
 H     51  50  48     1.085584814573   109.41824658   195.22968949

---------------------------
INTERNAL COORDINATES (A.U.)
---------------------------
 C      0   0   0     0.000000000000     0.00000000     0.00000000
 C      1   0   0     2.649973852460     0.00000000     0.00000000
 C      2   1   0     2.649267294669   116.16785076     0.00000000
 C      3   2   1     2.614515019413   122.97592385   358.92168824
 C      4   3   2     2.622336583218   119.53463754     0.15218476
 C      5   4   3     2.615887067318   119.28207082     0.45064215
 H      3   2   1     2.049204036415   117.74137394   179.11656201
 H      4   3   2     2.046990169643   120.24675101   180.26607164
 H      5   4   3     2.046014032960   120.80477866   180.60224076
 H      6   5   4     2.038290653507   118.79208903   180.57953215
 H      1   2   3     4.215253017107    76.06404373   189.61832801
 B      2   1   3     3.057891316735   126.77339909   183.20287636
 N      1   2   3     2.769741303029   117.94664967   181.26160491
 C     13   1   2     2.869821862251   113.92168647   260.15184439
 C     13   1   2     2.859826146648   115.70179735   120.83621754
 C     14  13   1     2.899327090681   109.00008473   169.92131790
 C     14  13   1     2.886614622967   108.70244405    52.47654082
 C     14  13   1     2.905220140829   115.45559659   293.25778918
 C     15  13   1     2.898788696826   106.99155594   192.67577693
 C     15  13   1     2.911760583304   117.01246332    69.15257029
 C     15  13   1     2.886210446087   109.53405899   309.02683431
 H     16  14  13     2.064960394867   107.57795102   174.57186593
 H     16  14  13     2.064279335932   108.70955046   290.05888339
 C     19  15  13     2.868550706141   112.45807362   301.73236326
 H     17  14  13     2.059951653554   111.71523825   293.07763984
 H     17  14  13     2.051560087244   112.30684969    54.01143560
 H     17  14  13     2.062420858485   108.28273167   173.88583460
 H     18  14  13     2.055919839946   111.83737433    49.49379055
 H     18  14  13     2.061979118787   107.43138983   166.86383123
 H     18  14  13     2.053534392231   113.95889305   284.91240502
 H     19  15  13     2.064458148811   108.12174378   178.29110606
 H     19  15  13     2.071081474976   108.54559497    62.42907357
 H     20  15  13     2.063527962578   107.52808176   166.12918482
 H     20  15  13     2.056503658424   111.05964463   282.82501531
 H     20  15  13     2.047246463999   114.96606895    46.42698593
 H     21  15  13     2.049793415052   111.11488055   292.62926198
 H     21  15  13     2.060288952018   111.76760713    55.50347004
 H     21  15  13     2.062366593664   108.44652494   174.44565274
 H     24  19  15     2.063330056338   110.29708610   180.72331131
 H     24  19  15     2.066754759718   110.57233180   298.23433677
 H     12   2   1     2.293886412514   110.22325759   212.07961513
 C     11   1   2     2.437861987427   130.56202636     9.18888364
 C     42  11   1     2.667085300685   106.29406881   210.78647961
 C     43  42  11     2.628379542402   110.04112209   239.53842689
 H     43  42  11     2.038843871063   123.92647304    58.65881721
 H     44  43  42     2.035630904110   128.03926816   178.93441657
 H     12   2   1     2.285074146518   110.66799063    90.41871641
 C     44  43  42     2.628395713386   106.04422074   358.68884093
 H     48  44  43     2.040554914592   129.61197070   182.75025364
 N     48  44  43     2.524242541950   109.46119536     1.27829726
 C     50  48  44     2.745811704331   123.80504869   192.78475532
 H     51  50  48     2.059305736699   109.55744409   315.59001419
 H     51  50  48     2.058458613517   110.09251173    76.61401927
 H     51  50  48     2.051457994687   109.41824658   195.22968949

Calling /groups/kemi/jmni/software/orca-external-tools/umaclient.sh input_EXT.extinp.tmp -b 127.0.0.1:44661  ... 

Total time:   0.768 seconds

External program completed successfully in 0.809 sec

-------------------------------------------------   --------------------
FINAL SINGLE POINT ENERGY (From external program)      -915.008881798600
-------------------------------------------------   --------------------


------------------
CARTESIAN GRADIENT
------------------

   1   C   :    0.000000521    0.000000229   -0.000000193
   2   C   :   -0.000000905    0.000002329    0.000000137
   3   C   :    0.000000581    0.000000251   -0.000000129
   4   C   :   -0.000000262   -0.000000243    0.000000768
   5   C   :    0.000000267   -0.000000688    0.000000171
   6   C   :   -0.000000763    0.000000693    0.000000197
   7   H   :    0.000002036    0.000000478    0.000000926
   8   H   :    0.000002254   -0.000001777   -0.000000222
   9   H   :   -0.000000526   -0.000002214   -0.000001260
  10   H   :   -0.000001960   -0.000000708   -0.000000878
  11   H   :   -0.000001123    0.000000144    0.000000362
  12   B   :   -0.000001133    0.000000083    0.000001092
  13   N   :   -0.000001287    0.000000757    0.000000223
  14   C   :    0.000000660    0.000000254   -0.000000776
  15   C   :    0.000000423   -0.000000313    0.000001044
  16   C   :   -0.000000162    0.000000058   -0.000000594
  17   C   :   -0.000003264    0.000000107   -0.000000486
  18   C   :    0.000000558    0.000000463    0.000000951
  19   C   :   -0.000000512   -0.000000102   -0.000000098
  20   C   :   -0.000000322    0.000000017    0.000000633
  21   C   :   -0.000002329   -0.000000680   -0.000000632
  22   H   :   -0.000000644   -0.000000100    0.000000765
  23   H   :    0.000000930    0.000000894    0.000000437
  24   C   :    0.000000239    0.000000323    0.000000240
  25   H   :    0.000001552   -0.000002825   -0.000000239
  26   H   :    0.000002637    0.000002121    0.000000296
  27   H   :   -0.000000216    0.000000203    0.000000709
  28   H   :    0.000000283   -0.000001640   -0.000000601
  29   H   :   -0.000000256   -0.000000063    0.000000618
  30   H   :   -0.000002125    0.000000690   -0.000001641
  31   H   :   -0.000000477    0.000000210   -0.000000877
  32   H   :    0.000001121    0.000000981    0.000000237
  33   H   :   -0.000000697    0.000000577   -0.000001146
  34   H   :    0.000000567   -0.000001529   -0.000000832
  35   H   :   -0.000001008   -0.000000383    0.000001354
  36   H   :    0.000002361    0.000002038    0.000001082
  37   H   :    0.000001366   -0.000002001   -0.000000649
  38   H   :   -0.000000390    0.000000385   -0.000000887
  39   H   :   -0.000000896   -0.000000166   -0.000000196
  40   H   :   -0.000000863   -0.000000704   -0.000000247
  41   H   :    0.000000546    0.000000241   -0.000000477
  42   C   :    0.000002830   -0.000000848   -0.000001316
  43   C   :   -0.000001110   -0.000002585    0.000002393
  44   C   :    0.000001191   -0.000000222   -0.000002558
  45   H   :    0.000000847    0.000000079   -0.000000136
  46   H   :    0.000000160    0.000002454    0.000002179
  47   H   :    0.000000406    0.000000109   -0.000000326
  48   C   :   -0.000001398    0.000002061    0.000000813
  49   H   :   -0.000000778    0.000000153   -0.000000159
  50   N   :   -0.000000779    0.000000358   -0.000000392
  51   C   :   -0.000002646   -0.000004869   -0.000000778
  52   H   :   -0.000000923   -0.000000123   -0.000001118
  53   H   :    0.000002626    0.000003344    0.000000021
  54   H   :    0.000002787    0.000001706    0.000002199

Difference to translation invariance:
           :   -0.0000000040    0.0000000040    0.0000000046

Difference to rotation invariance:
           :   -0.0000000102    0.0000000213   -0.0000000282

Norm of the Cartesian gradient     ...    0.0000158871
RMS gradient                       ...    0.0000012482
MAX gradient                       ...    0.0000048689
                                *** OPTIMIZATION RUN DONE ***


--------------------------------
SUGGESTED CITATIONS FOR THIS RUN
--------------------------------

Below you find a list of papers that are relevant to this ORCA run
We neither can nor want to force you to cite these papers, but we appreciate if you do
You receive ORCA, which is the product of decades of hard work by many enthusiastic individuals, for free
The only thing we kindly ask in return is that you cite our papers,
We deeply appreciate it, if you show your appreciation for ORCA by not just citing the generic ORCA reference.

Please note that relegating all ORCA citations to the supporting information does *not* help us.
SI sections are not indexed - citations you put there will not count into any citation statistics
But we need these citations in order to attract the funding resources that allow us to do what we are doing

Therefore, if you are a happy ORCA user, please consider citing a few of the papers listed below in the main body of your paper

In addition to the list printed below, the program has created the file input.bibtex that contains the list in bibtex format
You can import this file easily into all common literature databanks and citation aid programs


List of essential papers. We consider these as the minimum necessary citations

  1. Neese, F.
     Software update: the ORCA program system, version 6.0
     WIRES Comput. Molec. Sci. 2025 15(1), e70019
     doi.org/10.1002/wcms.7019

List of papers to cite with high priority. The work reported in these papers was absolutely
necessary for this run to complete.
Our perspective: the developers of density functionals and basis sets usually get cited in chemistry papers
Good! But without the algorithms to do something with them, the functionals or basis sets would not do anything.
Hence, in our opinion, the algorithm design and method developments papers are equally worthy of getting cited

  1. Bykov, D.; Petrenko, T.; Izsak, R.; Kossmann, S.; Becker, U.; Valeev, E.; Neese, F.
     Efficient implementation of the analytic second derivatives of Hartree-Fock and hybrid DFT energies: a detailed analysis of different approximations
     Molec. Phys. 2015 113 , 1961-1977
     doi.org/10.1080/00268976.2015.1025114
  2. Neese, F.
     The SHARK Integral Generation and Digestion System
     J. Comp. Chem. 2022 44(3), 381
     doi.org/10.1002/jcc.26942

List of suggested additional citations. These are papers that are important in the 'surrounding' of 
of this run, or papers that preceded the highly important papers. If you like your results we are grateful for a citation.

  1. Neese, F.
     The ORCA program system
     WIRES Comput. Molec. Sci. 2012 2(1), 73-78
     doi.org/10.1002/wcms.81
  2. Neese, F.
     Software update: the ORCA program system, version 4.0
     WIRES Comput. Molec. Sci. 2018 8(1), 1-6
     doi.org/10.1002/wcms.1327
  3. Neese, F.; Wennmohs, F.; Becker, U.; Riplinger, C.
     The ORCA quantum chemistry program package
     J. Chem. Phys. 2020 152(22), 224108
     doi.org/10.1063/5.0004608
  4. Neese, F.
     Software update: The ORCA program system—Version 5.0
     WIRES Comput. Molec. Sci. 2022 12(1), e1606
     doi.org/10.1002/wcms.1606

List of optional additional citations

  1. Neese, F.
     Approximate second-order SCF convergence for spin unrestricted wavefunctions
     Chem. Phys. Lett. 2000 325(1-3), 93-98
     doi.org/10.1016/s0009-2614(00)00662-x

Timings for individual modules:

Sum of individual times          ...      261.435 sec (=   4.357 min)
Geometry relaxation              ...        0.326 sec (=   0.005 min)   0.1 %
Numerical frequency calculation  ...      251.649 sec (=   4.194 min)  96.3 %
External energy and gradient     ...        9.459 sec (=   0.158 min)   3.6 %
                             ****ORCA TERMINATED NORMALLY****
TOTAL RUN TIME: 0 days 0 hours 4 minutes 27 seconds 218 msec
