
                                 *****************
                                 * O   R   C   A *
                                 *****************

                                            #,                                       
                                            ###                                      
                                            ####                                     
                                            #####                                    
                                            ######                                   
                                           ########,                                 
                                     ,,################,,,,,                         
                               ,,#################################,,                 
                          ,,##########################################,,             
                       ,#########################################, ''#####,          
                    ,#############################################,,   '####,        
                  ,##################################################,,,,####,       
                ,###########''''           ''''###############################       
              ,#####''   ,,,,##########,,,,          '''####'''          '####       
            ,##' ,,,,###########################,,,                        '##       
           ' ,,###''''                  '''############,,,                           
         ,,##''                                '''############,,,,        ,,,,,,###''
      ,#''                                            '''#######################'''  
     '                                                          ''''####''''         
             ,#######,   #######,   ,#######,      ##                                
            ,#'     '#,  ##    ##  ,#'     '#,    #''#        ,####,    ,#,          
            ##       ##  ##   ,#'  ##            #'  '#       #'       ,# #          
            ##       ##  #######   ##           ,######,      #####,      #          
            '#,     ,#'  ##    ##  '#,     ,#' ,#      #,     #,   #      #          
             '#######'   ##     ##  '#######'  #'      '#     '####' #    #          



                #########################################################
                #                        -***-                          #
                #          Department of theory and spectroscopy        #
                #                                                       #
                #                      Frank Neese                      #
                #                                                       #
                #     Directorship, Architecture, Infrastructure        #
                #                    SHARK, DRIVERS                     #
                #        Core code/Algorithms in most modules           #
                #                                                       #
                #        Max Planck Institute fuer Kohlenforschung      #
                #                Kaiser Wilhelm Platz 1                 #
                #                 D-45470 Muelheim/Ruhr                 #
                #                      Germany                          #
                #                                                       #
                #                  All rights reserved                  #
                #                        -***-                          #
                #########################################################


                         Program Version 6.1.0  -  RELEASE   -
                                (GIT: $679e74b$)
                          ($2025-06-10 18:02:51 +0200$)


 With contributions from (in alphabetic order):
[Max-Planck-Institut fuer Kohlenforschung]                               
  Daniel Aravena         : Magnetic Suceptibility                        
  Michael Atanasov       : Ab Initio Ligand Field Theory (pilot matlab implementation)
  Alexander A. Auer      : GIAO ZORA, VPT2 properties, NMR spectrum      
  Ute Becker             : All parallelization in ORCA, NUMFREQ, NUMCALC 
  Giovanni Bistoni       : ED, misc. LED, open-shell LED, HFLD           
  Dmytro Bykov           : pre 5.0 version of the SCF Hessian            
  Marcos Casanova-Páez   : Triplet and SCS-CIS(D). UHF-(DLPNO)-IP/EA/STEOM-CCSD. UHF-CVS-IP/STEOM-CCSD   
  Vijay G. Chilkuri      : MRCI spin determinant printing, contributions to CSF-ICE 
  Pauline Colinet        : FMM embedding                                 
  Dipayan Datta          : RHF DLPNO-CCSD density                        
  Achintya Kumar Dutta   : EOM-CC, STEOM-CC                              
  Nicolas Foglia         : Exact transition moments, OPA infrastructure, MCD improvements    
  Dmitry Ganyushin       : Spin-Orbit,Spin-Spin,Magnetic field MRCI      
  Miquel Garcia-Rates    : C-PCM and meta-GGA Hessian, CCSD/C-PCM, Gaussian charge scheme 
  Tiago L. C. Gouveia    : GS-ROHF, GS-ROCIS                             
  Yang Guo               : DLPNO-NEVPT2, F12-NEVPT2, CIM, IAO-localization        
  Andreas Hansen         : Spin unrestricted coupled pair/coupled cluster methods 
  Ingolf Harden          : AUTO-CI MPn and infrastructure                
  Benjamin Helmich-Paris : MC-RPA, TRAH-(SCF,CASSCF), AVAS, COSX integrals, SCF dyn. polar., MC-PDFT, srDFT 
  Lee Huntington         : MR-EOM, pCC                                   
  Robert Izsak           : Overlap fitted RIJCOSX, COSX-SCS-MP3, EOM     
  Riya Kayal             : Wick's Theorem for AUTO-CI, AUTO-CI UHF-CCSDT 
  Emily Kempfer          : AUTO-CI RHF CISDT and CCSDT, approximate NEVPT4
  Christian Kollmar      : KDIIS, OOCD, Brueckner-CCSD(T), CCSD density, CASPT2, CASPT2-K, improved NEVPT2 
  Axel Koslowski         : Symmetry handling                             
  Simone Kossmann        : meta-GGA functionals, TD-DFT gradient, OOMP2, (MP2 Hessian; deprecated post 5.0) 
  Lucas Lang             : DCDCAS, Hyperfine gauge corrections, ICE-SOC+SSC
  Marvin Lechner         : AUTO-CI (C++ implementation), FIC-MRCC        
  Spencer Leger          : CASSCF response                               
  Dagmar Lenk            : GEPOL surface, SMD, ORCA-2-JSON               
  Dimitrios Liakos       : Extrapolation schemes; Compound Job, Property file
  Dimitrios Manganas     : Further ROCIS development; embedding schemes. LFT, Crystal Embedding 
  Dimitrios Pantazis     : SARC Basis sets                               
  Anastasios Papadopoulos: AUTO-CI, single reference methods and gradients 
  Taras Petrenko         : pre 6.0 DFT Hessian and TD-DFT gradient,  ECA, NRVS 
  Petra Pikulova         : Analytic Raman intensities                    
  Peter Pinski           : DLPNO-MP2, DLPNO-MP2 Gradient                 
  Shashank Vittal Rao    : ES-AILFT, MagRelax                            
  Christoph Reimann      : Effective Core Potentials                     
  Marius Retegan         : Local ZFS, SOC                                
  Christoph Riplinger    : Optimizer, TS searches, QM/MM, DLPNO-CCSD(T), (RO)-DLPNO pert. Triples 
  Michael Roemelt        : Original ROCIS implementation, recursive CI coupling coefficients
  Masaaki Saitow         : Open-shell DLPNO-CCSD energy and density      
  Barbara Sandhoefer     : DKH picture change effects                    
  Yorick L. A. Schmerwitz: GMF and freeze-and-release deltaSCF, NEB S-IDPP initial path                    
  Kantharuban Sivalingam : CASSCF convergence/infrastructure, NEVPT2, NEVPT3, NEVPT4(SD), FIC-MRCI and CEPA variants
  Bernardo de Souza      : ESD, SOC TD-DFT                               
  Georgi L. Stoychev     : AutoAux, RI-MP2 NMR, DLPNO-MP2 response, X2C  
  Van Anh Tran           : RI-MP2 g-tensors                              
  Willem Van den Heuvel  : Paramagnetic NMR                              
  Zikuan Wang            : NOTCH, Electric field optimization            
  Frank Wennmohs         : Technical directorship and infrastructure     
  Hang Xu                : AUTO-CI-Response properties                   
                                                                         
[FACCTs GmbH]                                                            
  Markus Bursch, Nicolas Foglia, Miquel Garcia-Rates, Ingolf Harden, Hagen Neugebauer, Anastasios Papadopoulos, 
  Christoph Riplinger, Bernardo de Souza, Georgi L. Stoychev                                                    
                                                                 
  APM, various basis sets, CI-OPT, improved COSX, DLPNO-Multilevel,           
  DOCKER, DRACO, updates on ESD, Fragmentator, GOAT, IRC, LR-CPCM, L-BFGS, MBIS, meta-GGA TD-DFT gradient, ML-optimized integration grids, 
  MM, NACMEs, nearIR, NEB, NEB-TS, NL-DFT gradient (VV10), 2- and 3-layer-ONIOM, interface openCOSMO-RS, QMMM,   
  Crystal-QMMM, RESP, rigid body optimization, SF, symmetry and pop. for TD-DFT, various functionals, SOLVATOR                                   
                                                                         
[Other institutions]                                                     
  V. Asgeirsson          : NEB                                           
  Christoph Bannwarth    : sTDA-DFT, sTD-DFT, PBEh-3c, B97-3c, D3        
  Giovanni Bistoni       : ETS/NOCV, ADLD/ADEX, COVALED                  
  Martin Brehm           : Molecular dynamics                            
  Ronald Cardenas        : ETS/NOCV                                      
  Martina Colucci        : COVALED                                       
  Sebastian Ehlert       : rSCAN, r2SCAN, r2SCAN-3c, D4, dhf basis sets  
  Marvin Friede          : D4 for Fr, Ra, Ac-Lr                          
  Lars Goerigk           : TD-DFT with DH, B97 family of functionals     
  Stefan Grimme          : VdW corrections, initial TS optimization, DFT functionals, gCP, sTDA/sTD-DF 
  Waldemar Hujo          : DFT-NL                                        
  H. Jonsson             : NEB                                           
  Holger Kruse           : gCP                                           
  Marcel Mueller         : wB97X-3c, vDZP basis set                      
  Hagen Neugebauer       : wr2SCAN, Native XTB                           
  Gianluca Regni         : ADLD/ADEX                                     
  Tobias Risthaus        : pre 6.0 range-separated hybrid DFT and stability analysis
  Lukas Wittmann         : regularized MP2, r2SCAN double-hybrids, wr2SCAN        
                                                                         
We gratefully acknowledge several colleagues who have allowed us to      
interface, adapt or use parts of their codes:                            
  Ed Valeev, F. Pavosevic, A. Kumar             : LibInt (2-el integral package), F12 methods 
  Garnet Chan, S. Sharma, J. Yang, R. Olivares  : DMRG                   
  Ulf Ekstrom                                   : XCFun DFT Library      
  Mihaly Kallay                                 : mrcc  (arbitrary order and MRCC methods)
  Frank Weinhold                                : gennbo (NPA and NBO analysis)           
  Simon Mueller                                 : openCOSMO-RS                            
  Christopher J. Cramer and Donald G. Truhlar   : smd solvation model                     
  S Lehtola, MJT Oliveira, MAL Marques          : LibXC Library                           
  Liviu Ungur et al                             : ANISO software                          


 Your calculation uses the libint2 library for the computation of 2-el integrals
 For citations please refer to: http://libint.valeyev.net

 Your ORCA version has been built with support for libXC version: 7.0.0
 For citations please refer to: https://libxc.gitlab.io

 This ORCA versions uses:
   CBLAS   interface :  Fast vector & matrix operations
   LAPACKE interface :  Fast linear algebra routines
   SCALAPACK package :  Parallel linear algebra routines
   Shared memory     :  Shared parallel matrices
   BLAS/LAPACK       :  OpenBLAS 0.3.29  USE64BITINT DYNAMIC_ARCH NO_AFFINITY Zen SINGLE_THREADED
        Core in use  :  Zen
   Copyright (c) 2011-2014, The OpenBLAS Project


  ***********************************
  * Starting time: Mon Jul 28 10:25:43 2025
  * Host name:     node066.cluster
  * Process ID:    1196731
  * Working dir.:  /scratch/53205928/_e0ifd0
  ***********************************

NOTE: MaxCore=6758 MB was set to SCF,MP2,MDCI,CIPSI,MRCI,RASCI and CIS
      => If you want to overwrite this, your respective input block should be placed after the MaxCore statement
Your calculation utilizes the atom-pairwise dispersion correction
with the zero-damping scheme (D30)


XCFun DFT library Copyright 2009-2010 Ulf Ekstrom and contributors.
See http://admol.org/xcfun for more information.
This is free software; see the source code for copying conditions.
There is ABSOLUTELY NO WARRANTY; not even for MERCHANTABILITY or FITNESS FOR A PARTICULAR PURPOSE.
For details see the documentation.
Scientific users of this library should cite U. Ekstrom, L. Visscher, R. Bast, A. J. Thorvaldsen and K. Ruud;
J.Chem.Theor.Comp. 2010, DOI: 10.1021/ct100117s
XCFun Version 0.99 

Warning: RI is on but no J-basis has been assigned. Assigning Def2/J (nothing to worry about!)
================================================================================

----- Orbital basis set information -----
Your calculation utilizes the basis: 6-31G**
   H-He, Li-Ne : W. J. Hehre, R. Ditchfield and J.A. Pople, J. Chem. Phys. 56, 2257 (1972).
                 Note: He and Ne are unpublished basis sets taken from the Gaussian program.
                 Note: Li and B from J. D. Dill and J. A. Pople, J. Chem. Phys. 62, 2921 (1975).
   Na - Ar     : M. M. Francl, W. J. Pietro, W. J. Hehre, J. S. Binkley, M. S. Gordon, 
                 D. J. DeFrees and J. A. Pople, J. Chem. Phys. 77, 3654 (1982).
   K - Zn      : V. A. Rassolov, J. A. Pople, M. A. Ratner, and T. L. Windus, J. Chem. Phys. 109, 1223 (1998).

----- AuxJ basis set information -----
Your calculation utilizes the auxiliary basis: def2/J
   H-Rn: F. Weigend, Phys. Chem. Chem. Phys. 8, 1057 (2006).
   Fr-Lr: K. Eichkorn, F. Weigend, O. Treutler, R. Ahlrichs; Theor. Chem. Acc. 97, 119 (1997).

================================================================================
                                        WARNINGS
                       Please study these warnings very carefully!
================================================================================


WARNING: Geometry Optimization
  ===> : Switching off AutoStart
         For restart on a previous wavefunction, please use MOREAD

================================================================================
                                       INPUT FILE
================================================================================
NAME = input.inp
|  1> # Automatically generated ORCA input
|  2> 
|  3> # Number of cores
|  4> %pal nprocs 25 end
|  5> # RAM per core
|  6> %maxcore 6758
|  7> 
|  8> ! wB97X-D3 
|  9> ! 6-31G** 
| 10> ! TightSCF 
| 11> ! SlowConv 
| 12> ! OptTS 
| 13> ! Freq 
| 14> ! NoSym 
| 15> 
| 16> %geom
| 17>   Calc_Hess true
| 18> end
| 19> %Output
| 20>   JSONPropFile True
| 21> End
| 22> 
| 23> 
| 24> *xyz 0 1 
| 25> C        -2.23495000     -1.44824000      0.97690000
| 26> C        -1.07095000     -0.72541000      0.63015000
| 27> C        -0.02669000     -1.43321000      0.02758000
| 28> C        -0.09927000     -2.80246000     -0.22444000
| 29> C        -1.24558000     -3.49625000      0.13450000
| 30> C        -2.30963000     -2.82007000      0.72893000
| 31> H         0.88674000     -0.89680000     -0.21551000
| 32> H         0.73793000     -3.32013000     -0.68246000
| 33> H        -1.32366000     -4.56413000     -0.04788000
| 34> H        -3.20488000     -3.37229000      0.99636000
| 35> N        -3.30029000     -0.75641000      1.62935000
| 36> B        -0.87051000      0.81403000      0.96092000
| 37> H         1.94202000      3.87821000     -0.00485000
| 38> H         3.52012000      3.08685000     -0.18651000
| 39> H         2.02499000      2.13347000     -0.27389000
| 40> C         4.10277000      0.76092000      1.23660000
| 41> H         4.99242000      1.39511000      1.16825000
| 42> H         4.40963000     -0.21763000      1.61473000
| 43> H         3.69004000      0.62349000      0.23607000
| 44> C         3.60051000      1.35136000      3.61735000
| 45> H         3.75987000      0.31197000      3.91459000
| 46> H         4.54848000      1.88825000      3.71206000
| 47> H         2.87552000      1.79431000      4.30580000
| 48> C        -0.56853000      0.98464000      2.87602000
| 49> C        -0.69782000     -0.22387000      3.56454000
| 50> C        -1.63249000     -0.20704000      4.60713000
| 51> H        -1.74807000      1.61282000      0.80888000
| 52> H         0.17621000      1.24352000      0.51534000
| 53> C         2.54872000      2.78837000      1.74158000
| 54> C         3.07798000      1.37488000      2.17971000
| 55> O         1.18545000      2.76272000      2.21329000
| 56> O         1.88496000      0.56714000      2.15676000
| 57> B         0.81869000      1.43772000      2.25811000
| 58> C         3.26051000      3.96439000      2.39505000
| 59> H         2.83280000      4.90101000      2.02862000
| 60> H         3.15086000      3.94277000      3.48030000
| 61> H         4.32666000      3.95511000      2.14702000
| 62> C         2.51264000      2.97498000      0.22399000
| 63> H        -0.11681000     -1.09227000      3.27755000
| 64> C        -2.22153000      1.03211000      4.73611000
| 65> H        -1.87656000     -1.05678000      5.23114000
| 66> H        -2.98493000      1.31622000      5.44874000
| 67> S        -1.64065000      2.15774000      3.60861000
| 68> C        -3.92093000      0.42289000      0.99687000
| 69> C        -4.09726000     -1.46979000      2.64890000
| 70> C        -5.17596000     -0.55901000      3.23837000
| 71> H        -3.43454000     -1.81290000      3.46761000
| 72> H        -4.60974000     -2.35308000      2.21816000
| 73> C        -6.13019000     -0.04670000      2.14590000
| 74> H        -4.63846000      0.31132000      3.66999000
| 75> H        -5.74911000     -1.03428000      4.06269000
| 76> C        -5.41487000      0.15821000      0.79683000
| 77> H        -6.55951000      0.90629000      2.52496000
| 78> H        -6.97196000     -0.75032000      1.96672000
| 79> H        -3.49410000      0.59933000     -0.01446000
| 80> H        -3.80102000      1.32555000      1.63327000
| 81> H        -5.93134000      0.94614000      0.20799000
| 82> H        -5.47111000     -0.78772000      0.21188000
| 83> *
| 84> 
| 85> 
| 86>                          ****END OF INPUT****
================================================================================

                       *****************************
                       * Geometry Optimization Run *
                       *****************************

Geometry optimization settings:
Update method            Update   .... Bofill
Choice of coordinates    CoordSys .... (2022) Redundant Internals
Initial Hessian          InHess   .... Almloef's Model
Max. no of cycles        MaxIter  .... 174

Convergence Tolerances:
Energy Change            TolE     ....  5.0000e-06 Eh
Max. Gradient            TolMAXG  ....  3.0000e-04 Eh/bohr
RMS Gradient             TolRMSG  ....  1.0000e-04 Eh/bohr
Max. Displacement        TolMAXD  ....  4.0000e-03 bohr
RMS Displacement         TolRMSD  ....  2.0000e-03 bohr
Strict Convergence                .... False

------------------------------------------------------------------------------
                        ORCA OPTIMIZATION COORDINATE SETUP
------------------------------------------------------------------------------

The optimization will be done in redundant internal coordinates (2022)
Making redundant internal coordinates   ...  (2022 redundants) done
Following TS mode number                ...     0
Evaluating the initial hessian          ...  (Is done on the fly) done
Evaluating the coordinates              ...  done
Calculating the B-matrix                .... done
Calculating the G-matrix                .... done
The number of degrees of freedom        ....  312

    -----------------------------------------------------------------
                    Redundant Internal Coordinates


    -----------------------------------------------------------------
         Definition                    Initial Value    d2E/dq (diagonal element)
    -----------------------------------------------------------------
      1. B(C   1,C   0)                  1.4134         0.000000   
      2. B(C   2,C   1)                  1.3981         0.000000   
      3. B(C   3,C   2)                  1.3941         0.000000   
      4. B(C   4,C   3)                  1.3872         0.000000   
      5. B(C   5,C   4)                  1.3938         0.000000   
      6. B(C   5,C   0)                  1.3961         0.000000   
      7. B(H   6,C   2)                  1.0868         0.000000   
      8. B(H   7,C   3)                  1.0857         0.000000   
      9. B(H   8,C   4)                  1.0862         0.000000   
     10. B(H   9,C   5)                  1.0853         0.000000   
     11. B(N  10,C   0)                  1.4280         0.000000   
     12. B(B  11,C   1)                  1.5873         0.000000   
     13. B(H  16,C  15)                  1.0947         0.000000   
     14. B(H  17,C  15)                  1.0930         0.000000   
     15. B(H  18,C  15)                  1.0910         0.000000   
     16. B(H  20,C  19)                  1.0927         0.000000   
     17. B(H  21,C  19)                  1.0936         0.000000   
     18. B(H  22,C  19)                  1.0935         0.000000   
     19. B(C  23,B  11)                  1.9463         0.000000   
     20. B(C  24,C  23)                  1.3969         0.000000   
     21. B(C  25,C  24)                  1.4003         0.000000   
     22. B(H  26,B  11)                  1.1964         0.000000   
     23. B(H  27,B  11)                  1.2160         0.000000   
     24. B(C  29,C  28)                  1.5716         0.000000   
     25. B(C  29,C  19)                  1.5298         0.000000   
     26. B(C  29,C  15)                  1.5220         0.000000   
     27. B(O  30,C  28)                  1.4428         0.000000   
     28. B(O  31,C  29)                  1.4409         0.000000   
     29. B(B  32,O  31)                  1.3803         0.000000   
     30. B(B  32,O  30)                  1.3756         0.000000   
     31. B(B  32,C  23)                  1.5848         0.000000   
     32. B(C  33,C  28)                  1.5221         0.000000   
     33. B(H  34,C  33)                  1.0929         0.000000   
     34. B(H  35,C  33)                  1.0910         0.000000   
     35. B(H  36,C  33)                  1.0947         0.000000   
     36. B(C  37,C  28)                  1.5294         0.000000   
     37. B(C  37,H  14)                  1.0926         0.000000   
     38. B(C  37,H  13)                  1.0936         0.000000   
     39. B(C  37,H  12)                  1.0926         0.000000   
     40. B(H  38,C  24)                  1.0835         0.000000   
     41. B(C  39,C  25)                  1.3781         0.000000   
     42. B(H  40,C  25)                  1.0821         0.000000   
     43. B(H  41,C  39)                  1.0823         0.000000   
     44. B(S  42,C  39)                  1.6958         0.000000   
     45. B(S  42,C  23)                  1.7499         0.000000   
     46. B(C  43,N  10)                  1.4751         0.000000   
     47. B(C  44,N  10)                  1.4777         0.000000   
     48. B(C  45,C  44)                  1.5299         0.000000   
     49. B(H  46,C  44)                  1.1078         0.000000   
     50. B(H  47,C  44)                  1.1083         0.000000   
     51. B(C  48,C  45)                  1.5383         0.000000   
     52. B(H  49,C  45)                  1.1103         0.000000   
     53. B(H  50,C  45)                  1.1108         0.000000   
     54. B(C  51,C  48)                  1.5407         0.000000   
     55. B(C  51,C  43)                  1.5303         0.000000   
     56. B(H  52,H  41)                  4.6362         0.000000   
     57. B(H  52,C  48)                  1.1118         0.000000   
     58. B(H  53,C  48)                  1.1116         0.000000   
     59. B(H  54,C  43)                  1.1118         0.000000   
     60. B(H  55,C  43)                  1.1109         0.000000   
     61. B(H  56,C  51)                  1.1110         0.000000   
     62. B(H  57,C  51)                  1.1136         0.000000   
     63. A(C   1,C   0,N  10)          118.6018         0.000000   
     64. A(C   1,C   0,C   5)          120.2003         0.000000   
     65. A(C   5,C   0,N  10)          121.1515         0.000000   
     66. A(C   0,C   1,C   2)          117.5144         0.000000   
     67. A(C   2,C   1,B  11)          119.1115         0.000000   
     68. A(C   0,C   1,B  11)          123.2904         0.000000   
     69. A(C   3,C   2,H   6)          119.2137         0.000000   
     70. A(C   1,C   2,C   3)          122.4297         0.000000   
     71. A(C   1,C   2,H   6)          118.3137         0.000000   
     72. A(C   2,C   3,C   4)          119.1743         0.000000   
     73. A(C   2,C   3,H   7)          120.2933         0.000000   
     74. A(C   4,C   3,H   7)          120.5261         0.000000   
     75. A(C   5,C   4,H   8)          119.5837         0.000000   
     76. A(C   3,C   4,H   8)          120.5103         0.000000   
     77. A(C   3,C   4,C   5)          119.9055         0.000000   
     78. A(C   0,C   5,H   9)          120.0219         0.000000   
     79. A(C   0,C   5,C   4)          120.7716         0.000000   
     80. A(C   4,C   5,H   9)          119.2061         0.000000   
     81. A(C  43,N  10,C  44)          117.0564         0.000000   
     82. A(C   0,N  10,C  43)          120.3508         0.000000   
     83. A(C   0,N  10,C  44)          118.9279         0.000000   
     84. A(C   1,B  11,H  27)          112.0180         0.000000   
     85. A(C  23,B  11,H  26)          100.3892         0.000000   
     86. A(C   1,B  11,C  23)          108.0390         0.000000   
     87. A(C  23,B  11,H  27)          101.3058         0.000000   
     88. A(C   1,B  11,H  26)          121.9004         0.000000   
     89. A(H  26,B  11,H  27)          110.4273         0.000000   
     90. A(H  17,C  15,H  18)          108.1009         0.000000   
     91. A(H  16,C  15,H  18)          108.8542         0.000000   
     92. A(H  17,C  15,C  29)          109.6210         0.000000   
     93. A(H  18,C  15,C  29)          111.3677         0.000000   
     94. A(H  16,C  15,H  17)          108.1858         0.000000   
     95. A(H  16,C  15,C  29)          110.6211         0.000000   
     96. A(H  21,C  19,C  29)          111.7111         0.000000   
     97. A(H  22,C  19,C  29)          111.0360         0.000000   
     98. A(H  21,C  19,H  22)          108.7432         0.000000   
     99. A(H  20,C  19,H  22)          108.1031         0.000000   
    100. A(H  20,C  19,H  21)          108.4822         0.000000   
    101. A(H  20,C  19,C  29)          108.6663         0.000000   
    102. A(B  11,C  23,C  24)          113.2540         0.000000   
    103. A(C  24,C  23,B  32)          121.3690         0.000000   
    104. A(B  11,C  23,B  32)           77.1274         0.000000   
    105. A(B  32,C  23,S  42)          120.5217         0.000000   
    106. A(C  24,C  23,S  42)          108.4765         0.000000   
    107. A(B  11,C  23,S  42)          112.0639         0.000000   
    108. A(C  23,C  24,C  25)          114.7313         0.000000   
    109. A(C  25,C  24,H  38)          124.3844         0.000000   
    110. A(C  23,C  24,H  38)          120.8767         0.000000   
    111. A(C  39,C  25,H  40)          123.7593         0.000000   
    112. A(C  24,C  25,H  40)          124.7811         0.000000   
    113. A(C  24,C  25,C  39)          111.4564         0.000000   
    114. A(C  29,C  28,C  33)          114.6914         0.000000   
    115. A(O  30,C  28,C  33)          108.3753         0.000000   
    116. A(C  29,C  28,O  30)          102.1847         0.000000   
    117. A(C  33,C  28,C  37)          110.0453         0.000000   
    118. A(O  30,C  28,C  37)          107.7152         0.000000   
    119. A(C  29,C  28,C  37)          113.2218         0.000000   
    120. A(C  28,C  29,O  31)          102.7621         0.000000   
    121. A(C  19,C  29,O  31)          106.8067         0.000000   
    122. A(C  15,C  29,O  31)          108.7519         0.000000   
    123. A(C  19,C  29,C  28)          113.0058         0.000000   
    124. A(C  15,C  29,C  28)          114.6322         0.000000   
    125. A(C  15,C  29,C  19)          110.2502         0.000000   
    126. A(C  28,O  30,B  32)          106.2427         0.000000   
    127. A(C  29,O  31,B  32)          106.5508         0.000000   
    128. A(O  30,B  32,O  31)          113.5276         0.000000   
    129. A(C  23,B  32,O  31)          121.6362         0.000000   
    130. A(C  23,B  32,O  30)          121.4320         0.000000   
    131. A(H  35,C  33,H  36)          108.8511         0.000000   
    132. A(H  34,C  33,H  36)          108.2071         0.000000   
    133. A(C  28,C  33,H  36)          110.5876         0.000000   
    134. A(H  34,C  33,H  35)          108.1294         0.000000   
    135. A(C  28,C  33,H  35)          111.3928         0.000000   
    136. A(C  28,C  33,H  34)          109.5844         0.000000   
    137. A(H  13,C  37,H  14)          108.5961         0.000000   
    138. A(H  12,C  37,H  14)          107.9481         0.000000   
    139. A(H  12,C  37,H  13)          108.5380         0.000000   
    140. A(H  14,C  37,C  28)          111.6355         0.000000   
    141. A(H  13,C  37,C  28)          111.2964         0.000000   
    142. A(H  12,C  37,C  28)          108.7236         0.000000   
    143. A(H  41,C  39,S  42)          120.3418         0.000000   
    144. A(C  25,C  39,S  42)          112.8436         0.000000   
    145. A(C  25,C  39,H  41)          126.8104         0.000000   
    146. A(C  23,S  42,C  39)           92.4778         0.000000   
    147. A(H  54,C  43,H  55)          110.5301         0.000000   
    148. A(C  51,C  43,H  55)          108.7101         0.000000   
    149. A(C  51,C  43,H  54)          106.4586         0.000000   
    150. A(N  10,C  43,H  54)          110.8159         0.000000   
    151. A(N  10,C  43,C  51)          109.1783         0.000000   
    152. A(N  10,C  43,H  55)          111.0111         0.000000   
    153. A(H  46,C  44,H  47)          108.4819         0.000000   
    154. A(C  45,C  44,H  47)          107.3476         0.000000   
    155. A(N  10,C  44,H  47)          111.4682         0.000000   
    156. A(C  45,C  44,H  46)          108.7496         0.000000   
    157. A(N  10,C  44,H  46)          109.6814         0.000000   
    158. A(N  10,C  44,C  45)          111.0214         0.000000   
    159. A(H  49,C  45,H  50)          107.2596         0.000000   
    160. A(C  48,C  45,H  50)          110.4527         0.000000   
    161. A(C  44,C  45,H  50)          113.2672         0.000000   
    162. A(C  48,C  45,H  49)          108.3800         0.000000   
    163. A(C  44,C  45,H  49)          105.9688         0.000000   
    164. A(C  44,C  45,C  48)          111.2225         0.000000   
    165. A(H  52,C  48,H  53)          107.7631         0.000000   
    166. A(C  51,C  48,H  53)          107.1346         0.000000   
    167. A(C  45,C  48,H  53)          111.9243         0.000000   
    168. A(C  51,C  48,H  52)          111.3345         0.000000   
    169. A(C  45,C  48,H  52)          106.4303         0.000000   
    170. A(C  45,C  48,C  51)          112.2184         0.000000   
    171. A(H  56,C  51,H  57)          107.4904         0.000000   
    172. A(C  48,C  51,H  57)          108.8765         0.000000   
    173. A(C  43,C  51,H  57)          105.3597         0.000000   
    174. A(C  48,C  51,H  56)          110.0347         0.000000   
    175. A(C  43,C  51,H  56)          113.6054         0.000000   
    176. A(C  43,C  51,C  48)          111.2103         0.000000   
    177. D(C   2,C   1,C   0,N  10)    178.1793         0.000000   
    178. D(B  11,C   1,C   0,C   5)   -176.0113         0.000000   
    179. D(B  11,C   1,C   0,N  10)      1.5413         0.000000   
    180. D(C   2,C   1,C   0,C   5)      0.6267         0.000000   
    181. D(H   6,C   2,C   1,C   0)   -178.0770         0.000000   
    182. D(C   3,C   2,C   1,B  11)    176.3031         0.000000   
    183. D(C   3,C   2,C   1,C   0)     -0.4803         0.000000   
    184. D(H   6,C   2,C   1,B  11)     -1.2935         0.000000   
    185. D(H   7,C   3,C   2,H   6)     -1.6121         0.000000   
    186. D(H   7,C   3,C   2,C   1)   -179.1880         0.000000   
    187. D(C   4,C   3,C   2,H   6)    177.4811         0.000000   
    188. D(C   4,C   3,C   2,C   1)     -0.0947         0.000000   
    189. D(C   5,C   4,C   3,C   2)      0.5305         0.000000   
    190. D(H   8,C   4,C   3,C   2)   -179.7382         0.000000   
    191. D(C   5,C   4,C   3,H   7)    179.6216         0.000000   
    192. D(H   8,C   4,C   3,H   7)     -0.6471         0.000000   
    193. D(H   9,C   5,C   4,C   3)    179.4079         0.000000   
    194. D(H   9,C   5,C   4,H   8)     -0.3259         0.000000   
    195. D(C   0,C   5,C   4,H   8)    179.8853         0.000000   
    196. D(C   0,C   5,C   4,C   3)     -0.3809         0.000000   
    197. D(H   9,C   5,C   0,C   1)   -179.9990         0.000000   
    198. D(C   4,C   5,C   0,N  10)   -177.7011         0.000000   
    199. D(H   9,C   5,C   0,N  10)      2.5119         0.000000   
    200. D(C   4,C   5,C   0,C   1)     -0.2119         0.000000   
    201. D(C  44,N  10,C   0,C   1)   -144.9135         0.000000   
    202. D(C  44,N  10,C   0,C   5)     32.6149         0.000000   
    203. D(C  43,N  10,C   0,C   5)   -125.1838         0.000000   
    204. D(C  43,N  10,C   0,C   1)     57.2879         0.000000   
    205. D(C  23,B  11,C   1,C   2)   -104.0687         0.000000   
    206. D(H  26,B  11,C   1,C   0)    -42.7028         0.000000   
    207. D(C  23,B  11,C   1,C   0)     72.5183         0.000000   
    208. D(H  27,B  11,C   1,C   0)   -176.7434         0.000000   
    209. D(H  26,B  11,C   1,C   2)    140.7102         0.000000   
    210. D(B  32,C  23,B  11,H  26)   -117.4366         0.000000   
    211. D(B  32,C  23,B  11,C   1)    113.9007         0.000000   
    212. D(C  24,C  23,B  11,H  27)   -122.8315         0.000000   
    213. D(C  24,C  23,B  11,H  26)    123.6833         0.000000   
    214. D(B  32,C  23,B  11,H  27)     -3.9514         0.000000   
    215. D(C  24,C  23,B  11,C   1)     -4.9795         0.000000   
    216. D(H  38,C  24,C  23,B  32)    -33.5613         0.000000   
    217. D(H  38,C  24,C  23,B  11)     55.1773         0.000000   
    218. D(C  25,C  24,C  23,S  42)      1.2170         0.000000   
    219. D(C  25,C  24,C  23,B  32)    147.4026         0.000000   
    220. D(C  25,C  24,C  23,B  11)   -123.8588         0.000000   
    221. D(H  40,C  25,C  24,H  38)     -0.3198         0.000000   
    222. D(H  40,C  25,C  24,C  23)    178.6778         0.000000   
    223. D(C  39,C  25,C  24,H  38)   -179.6859         0.000000   
    224. D(C  39,C  25,C  24,C  23)     -0.6883         0.000000   
    225. D(C  15,C  29,C  28,C  33)    -96.1671         0.000000   
    226. D(C  15,C  29,C  28,O  30)    146.8172         0.000000   
    227. D(C  28,C  29,C  19,H  22)     49.9892         0.000000   
    228. D(C  28,C  29,C  19,H  21)    -71.5908         0.000000   
    229. D(C  15,C  29,C  19,H  22)    179.7274         0.000000   
    230. D(C  15,C  29,C  19,H  21)     58.1473         0.000000   
    231. D(C  15,C  29,C  19,H  20)    -61.5009         0.000000   
    232. D(C  28,C  29,C  15,H  18)    -60.1280         0.000000   
    233. D(C  28,C  29,C  19,H  20)    168.7610         0.000000   
    234. D(C  28,C  29,C  15,H  17)   -179.7100         0.000000   
    235. D(C  28,C  29,C  15,H  16)     61.0697         0.000000   
    236. D(C  19,C  29,C  15,H  18)    171.0111         0.000000   
    237. D(C  19,C  29,C  15,H  17)     51.4292         0.000000   
    238. D(C  15,C  29,C  28,C  37)     31.2616         0.000000   
    239. D(C  19,C  29,C  15,H  16)    -67.7911         0.000000   
    240. D(C  19,C  29,C  28,C  37)    158.7322         0.000000   
    241. D(C  19,C  29,C  28,C  33)     31.3034         0.000000   
    242. D(C  19,C  29,C  28,O  30)    -85.7123         0.000000   
    243. D(B  32,O  30,C  28,C  37)     93.6648         0.000000   
    244. D(B  32,O  30,C  28,C  33)   -147.3054         0.000000   
    245. D(B  32,O  30,C  28,C  29)    -25.8359         0.000000   
    246. D(B  32,O  31,C  29,C  28)    -21.4927         0.000000   
    247. D(B  32,O  31,C  29,C  19)     97.6520         0.000000   
    248. D(B  32,O  31,C  29,C  15)   -143.3766         0.000000   
    249. D(O  30,B  32,O  31,C  29)      6.0901         0.000000   
    250. D(C  23,B  32,O  31,C  29)   -153.3448         0.000000   
    251. D(O  31,B  32,O  30,C  28)     13.9303         0.000000   
    252. D(C  23,B  32,O  30,C  28)    173.4121         0.000000   
    253. D(O  31,B  32,C  23,C  24)     12.0136         0.000000   
    254. D(O  31,B  32,C  23,B  11)    -97.5584         0.000000   
    255. D(O  30,B  32,C  23,S  42)     -3.5965         0.000000   
    256. D(O  30,B  32,C  23,C  24)   -145.8101         0.000000   
    257. D(O  30,B  32,C  23,B  11)    104.6179         0.000000   
    258. D(H  35,C  33,C  28,C  37)    170.2445         0.000000   
    259. D(H  35,C  33,C  28,O  30)     52.6954         0.000000   
    260. D(H  35,C  33,C  28,C  29)    -60.7271         0.000000   
    261. D(H  34,C  33,C  28,C  37)     50.6351         0.000000   
    262. D(H  34,C  33,C  28,O  30)    -66.9141         0.000000   
    263. D(H  34,C  33,C  28,C  29)    179.6635         0.000000   
    264. D(H  13,C  37,C  28,C  33)     57.2750         0.000000   
    265. D(H  13,C  37,C  28,O  30)    175.2328         0.000000   
    266. D(H  13,C  37,C  28,C  29)    -72.5477         0.000000   
    267. D(H  12,C  37,C  28,C  33)    -62.2251         0.000000   
    268. D(H  12,C  37,C  28,O  30)     55.7327         0.000000   
    269. D(H  12,C  37,C  28,C  29)    167.9522         0.000000   
    270. D(S  42,C  39,C  25,H  40)   -179.5797         0.000000   
    271. D(S  42,C  39,C  25,C  24)     -0.2059         0.000000   
    272. D(H  41,C  39,C  25,H  40)     -0.3336         0.000000   
    273. D(H  41,C  39,C  25,C  24)    179.0402         0.000000   
    274. D(C  23,S  42,C  39,H  41)   -178.5289         0.000000   
    275. D(C  23,S  42,C  39,C  25)      0.7717         0.000000   
    276. D(C  39,S  42,C  23,B  32)   -147.6306         0.000000   
    277. D(C  39,S  42,C  23,C  24)     -1.1069         0.000000   
    278. D(C  39,S  42,C  23,B  11)    124.6673         0.000000   
    279. D(H  55,C  43,N  10,C   0)   -119.2543         0.000000   
    280. D(H  54,C  43,N  10,C  44)   -154.2295         0.000000   
    281. D(H  54,C  43,N  10,C   0)      3.9711         0.000000   
    282. D(C  51,C  43,N  10,C  44)    -37.2837         0.000000   
    283. D(C  51,C  43,N  10,C   0)    120.9170         0.000000   
    284. D(H  47,C  44,N  10,C   0)    -60.9307         0.000000   
    285. D(H  46,C  44,N  10,C  43)   -142.2473         0.000000   
    286. D(H  46,C  44,N  10,C   0)     59.2309         0.000000   
    287. D(C  45,C  44,N  10,C  43)    -22.0372         0.000000   
    288. D(C  45,C  44,N  10,C   0)    179.4409         0.000000   
    289. D(H  49,C  45,C  44,H  47)    179.5225         0.000000   
    290. D(H  49,C  45,C  44,H  46)     62.3443         0.000000   
    291. D(H  49,C  45,C  44,N  10)    -58.4175         0.000000   
    292. D(C  48,C  45,C  44,H  47)    -62.8994         0.000000   
    293. D(C  48,C  45,C  44,H  46)    179.9224         0.000000   
    294. D(C  48,C  45,C  44,N  10)     59.1607         0.000000   
    295. D(H  52,C  48,C  45,H  50)     78.1633         0.000000   
    296. D(H  52,C  48,C  45,H  49)    -39.0693         0.000000   
    297. D(H  52,C  48,C  45,C  44)   -155.1747         0.000000   
    298. D(C  51,C  48,C  45,H  50)   -159.8193         0.000000   
    299. D(C  51,C  48,C  45,H  49)     82.9480         0.000000   
    300. D(C  51,C  48,C  45,C  44)    -33.1574         0.000000   
    301. D(C  48,C  51,C  43,H  55)    -58.6427         0.000000   
    302. D(C  48,C  51,C  43,H  54)   -177.7300         0.000000   
    303. D(C  48,C  51,C  43,N  10)     62.5953         0.000000   
    304. D(H  56,C  51,C  48,H  53)     84.2801         0.000000   
    305. D(H  56,C  51,C  48,H  52)    -33.3108         0.000000   
    306. D(H  56,C  51,C  48,C  45)   -152.4905         0.000000   
    307. D(C  43,C  51,C  48,H  53)   -148.9420         0.000000   
    308. D(C  43,C  51,C  48,H  52)     93.4672         0.000000   
    309. D(C  43,C  51,C  48,C  45)    -25.7126         0.000000   
    310. D(H  56,C  51,C  43,H  55)     66.1516         0.000000   
    311. D(H  56,C  51,C  43,H  54)    -52.9357         0.000000   
    312. D(H  56,C  51,C  43,N  10)   -172.6104         0.000000   
    -----------------------------------------------------------------

Number of atoms                         .... 58
Number of degrees of freedom            .... 312


         *************************************************************
         *                GEOMETRY OPTIMIZATION CYCLE   1            *
         *************************************************************
---------------------------------
CARTESIAN COORDINATES (ANGSTROEM)
---------------------------------
  C     -2.234950   -1.448240    0.976900
  C     -1.070950   -0.725410    0.630150
  C     -0.026690   -1.433210    0.027580
  C     -0.099270   -2.802460   -0.224440
  C     -1.245580   -3.496250    0.134500
  C     -2.309630   -2.820070    0.728930
  H      0.886740   -0.896800   -0.215510
  H      0.737930   -3.320130   -0.682460
  H     -1.323660   -4.564130   -0.047880
  H     -3.204880   -3.372290    0.996360
  N     -3.300290   -0.756410    1.629350
  B     -0.870510    0.814030    0.960920
  H      1.942020    3.878210   -0.004850
  H      3.520120    3.086850   -0.186510
  H      2.024990    2.133470   -0.273890
  C      4.102770    0.760920    1.236600
  H      4.992420    1.395110    1.168250
  H      4.409630   -0.217630    1.614730
  H      3.690040    0.623490    0.236070
  C      3.600510    1.351360    3.617350
  H      3.759870    0.311970    3.914590
  H      4.548480    1.888250    3.712060
  H      2.875520    1.794310    4.305800
  C     -0.568530    0.984640    2.876020
  C     -0.697820   -0.223870    3.564540
  C     -1.632490   -0.207040    4.607130
  H     -1.748070    1.612820    0.808880
  H      0.176210    1.243520    0.515340
  C      2.548720    2.788370    1.741580
  C      3.077980    1.374880    2.179710
  O      1.185450    2.762720    2.213290
  O      1.884960    0.567140    2.156760
  B      0.818690    1.437720    2.258110
  C      3.260510    3.964390    2.395050
  H      2.832800    4.901010    2.028620
  H      3.150860    3.942770    3.480300
  H      4.326660    3.955110    2.147020
  C      2.512640    2.974980    0.223990
  H     -0.116810   -1.092270    3.277550
  C     -2.221530    1.032110    4.736110
  H     -1.876560   -1.056780    5.231140
  H     -2.984930    1.316220    5.448740
  S     -1.640650    2.157740    3.608610
  C     -3.920930    0.422890    0.996870
  C     -4.097260   -1.469790    2.648900
  C     -5.175960   -0.559010    3.238370
  H     -3.434540   -1.812900    3.467610
  H     -4.609740   -2.353080    2.218160
  C     -6.130190   -0.046700    2.145900
  H     -4.638460    0.311320    3.669990
  H     -5.749110   -1.034280    4.062690
  C     -5.414870    0.158210    0.796830
  H     -6.559510    0.906290    2.524960
  H     -6.971960   -0.750320    1.966720
  H     -3.494100    0.599330   -0.014460
  H     -3.801020    1.325550    1.633270
  H     -5.931340    0.946140    0.207990
  H     -5.471110   -0.787720    0.211880

----------------------------
CARTESIAN COORDINATES (A.U.)
----------------------------
  NO LB      ZA    FRAG     MASS         X           Y           Z
   0 C     6.0000    0    12.011   -4.223443   -2.736777    1.846073
   1 C     6.0000    0    12.011   -2.023802   -1.370826    1.190811
   2 C     6.0000    0    12.011   -0.050437   -2.708374    0.052119
   3 C     6.0000    0    12.011   -0.187593   -5.295882   -0.424130
   4 C     6.0000    0    12.011   -2.353805   -6.606955    0.254168
   5 C     6.0000    0    12.011   -4.364568   -5.329160    1.377478
   6 H     1.0000    0     1.008    1.675696   -1.694706   -0.407255
   7 H     1.0000    0     1.008    1.394486   -6.274136   -1.289662
   8 H     1.0000    0     1.008   -2.501355   -8.624956   -0.090480
   9 H     1.0000    0     1.008   -6.056345   -6.372705    1.882848
  10 N     7.0000    0    14.007   -6.236644   -1.429408    3.079025
  11 B     5.0000    0    10.810   -1.645025    1.538294    1.815876
  12 H     1.0000    0     1.008    3.669886    7.328755   -0.009165
  13 H     1.0000    0     1.008    6.652063    5.833301   -0.352453
  14 H     1.0000    0     1.008    3.826677    4.031674   -0.517577
  15 C     6.0000    0    12.011    7.753112    1.437930    2.336835
  16 H     1.0000    0     1.008    9.434307    2.636376    2.207673
  17 H     1.0000    0     1.008    8.332993   -0.411261    3.051397
  18 H     1.0000    0     1.008    6.973165    1.178225    0.446108
  19 C     6.0000    0    12.011    6.803978    2.553700    6.835801
  20 H     1.0000    0     1.008    7.105125    0.589538    7.397503
  21 H     1.0000    0     1.008    8.595382    3.568275    7.014777
  22 H     1.0000    0     1.008    5.433945    3.390754    8.136783
  23 C     6.0000    0    12.011   -1.074366    1.860700    5.434890
  24 C     6.0000    0    12.011   -1.318689   -0.423053    6.736004
  25 C     6.0000    0    12.011   -3.084959   -0.391249    8.706214
  26 H     1.0000    0     1.008   -3.303374    3.047788    1.528562
  27 H     1.0000    0     1.008    0.332989    2.349912    0.973851
  28 C     6.0000    0    12.011    4.816383    5.269256    3.291109
  29 C     6.0000    0    12.011    5.816539    2.598147    4.119055
  30 O     8.0000    0    15.999    2.240176    5.220784    4.182512
  31 O     8.0000    0    15.999    3.562058    1.071739    4.075686
  32 B     5.0000    0    10.810    1.547100    2.716897    4.267209
  33 C     6.0000    0    12.011    6.161471    7.491611    4.525989
  34 H     1.0000    0     1.008    5.353216    9.261567    3.833536
  35 H     1.0000    0     1.008    5.954262    7.450756    6.576814
  36 H     1.0000    0     1.008    8.176202    7.474075    4.057280
  37 C     6.0000    0    12.011    4.748201    5.621897    0.423280
  38 H     1.0000    0     1.008   -0.220739   -2.064091    6.193672
  39 C     6.0000    0    12.011   -4.198083    1.950405    8.949951
  40 H     1.0000    0     1.008   -3.546184   -1.997025    9.885422
  41 H     1.0000    0     1.008   -5.640700    2.487295   10.296626
  42 S    16.0000    0    32.060   -3.100379    4.077538    6.819285
  43 C     6.0000    0    12.011   -7.409484    0.799146    1.883811
  44 C     6.0000    0    12.011   -7.742699   -2.777501    5.005696
  45 C     6.0000    0    12.011   -9.781147   -1.056376    6.119632
  46 H     1.0000    0     1.008   -6.490340   -3.425885    6.552833
  47 H     1.0000    0     1.008   -8.711146   -4.446677    4.191715
  48 C     6.0000    0    12.011  -11.584380   -0.088250    4.055163
  49 H     1.0000    0     1.008   -8.765419    0.588310    6.935276
  50 H     1.0000    0     1.008  -10.864243   -1.954506    7.677371
  51 C     6.0000    0    12.011  -10.232621    0.298974    1.505790
  52 H     1.0000    0     1.008  -12.395677    1.712640    4.771483
  53 H     1.0000    0     1.008  -13.175095   -1.417899    3.716562
  54 H     1.0000    0     1.008   -6.602892    1.132570   -0.027325
  55 H     1.0000    0     1.008   -7.182887    2.504926    3.086433
  56 H     1.0000    0     1.008  -11.208608    1.787945    0.393044
  57 H     1.0000    0     1.008  -10.338900   -1.488575    0.400395

--------------------------------
INTERNAL COORDINATES (ANGSTROEM)
--------------------------------
 C      0   0   0     0.000000000000     0.00000000     0.00000000
 C      1   0   0     1.413370005130     0.00000000     0.00000000
 C      2   1   0     1.398052356852   117.51443330     0.00000000
 C      3   2   1     1.394140415919   122.42968457   359.51965013
 C      4   3   2     1.387158644063   119.17428488   359.90525261
 C      5   4   3     1.393832421706   119.90545231     0.53049327
 H      3   2   1     1.086822341094   118.31371242   181.92295989
 H      4   3   2     1.085664952598   120.29334930   180.81199847
 H      5   4   3     1.086152220087   120.51034415   180.26178437
 H      6   5   4     1.085328657965   119.20613620   179.40790257
 N      1   2   3     1.428029785054   118.60184440   178.17929270
 B      2   1   3     1.587280851047   123.29037434   183.36203017
 H     12   2   1     4.269922220158   137.05728836   188.53485911
 H     13  12   2     1.774725504184   106.79020924   327.97563526
 H     13  12   2     1.767309879478    49.97661987   349.22093887
 C     14  13  12     2.788310144066   120.36651552   330.99845353
 H     16  14  13     1.094689819584    69.79938279   217.16457307
 H     16  14  13     1.093025827234   169.12395661   135.93720699
 H     16  14  13     1.091005654752    63.76639695    92.74842228
 C     16  14  13     2.503768172915   104.28082105   307.20241639
 H     20  16  14     1.092739126828    90.29143742   172.82502404
 H     20  16  14     1.093557486875    91.38867766   281.32052561
 H     20  16  14     1.093516623148   145.80827678    48.73976639
 C     12   2   1     1.946254788690   108.03898136    72.51832529
 C     24  12   2     1.396879420208   113.25399698   355.02054193
 C     25  24  12     1.400316094994   114.73127572   236.14121796
 H     12   2   1     1.196366657551   121.90044055   317.29719939
 H     12   2   1     1.215987645867   112.01795441   183.25660502
 C     13  12   2     2.146125313326    68.76040943   271.98929653
 C     16  14  13     1.522037416689    80.73912206   333.28250374
 O     29  13  12     1.442800519649    90.45643809   319.26046696
 O     30  16  14     1.440925858780   108.75187068   111.21580247
 B     31  29  13     1.375553245062   106.24274832   117.14820537
 C     29  13  12     1.522068029163    95.11816337   210.76528331
 H     34  29  13     1.092915281895   109.58436466    25.27401543
 H     34  29  13     1.090989509299   111.39277765   144.88345614
 H     34  29  13     1.094660139861   110.58755766   266.07121174
 C     13  12   2     1.092611258820    72.74607102   316.89776823
 H     25  24  12     1.083537927440   120.87668174    55.17732875
 C     26  25  24     1.378077169283   111.45637601   359.31166828
 H     26  25  24     1.082135256149   124.78113108   178.67779585
 H     40  26  25     1.082284421490   126.81038569   179.04018659
 S     40  26  25     1.695795011580   112.84358737   359.79413176
 C     11   1   2     1.475118113915   120.35080705    57.28785034
 C     11   1   2     1.477685490150   118.92789967   215.08653345
 C     45  11   1     1.529898290508   111.02139276   179.44094331
 H     45  11   1     1.107794355736   109.68142200    59.23085965
 H     45  11   1     1.108320315658   111.46821861   299.06925973
 C     46  45  11     1.538345582078   111.22254801    59.16066413
 H     46  45  11     1.110259601760   105.96883028   301.58254101
 H     46  45  11     1.110804194176   113.26716741   184.26153730
 C     44  11   1     1.530335985201   109.17825526   120.91698133
 H     49  46  45     1.111841754073   106.43033720   204.82527554
 H     49  46  45     1.111648914766   111.92430131    87.33758717
 H     44  11   1     1.111801821999   110.81587052     3.97113419
 H     44  11   1     1.110935841397   111.01108926   240.74568201
 H     52  44  11     1.110993920505   113.60538474   187.38956025
 H     52  44  11     1.113603612153   105.35968663   304.78827578

---------------------------
INTERNAL COORDINATES (A.U.)
---------------------------
 C      0   0   0     0.000000000000     0.00000000     0.00000000
 C      1   0   0     2.670882235594     0.00000000     0.00000000
 C      2   1   0     2.641936075334   117.51443330     0.00000000
 C      3   2   1     2.634543578319   122.42968457   359.51965013
 C      4   3   2     2.621349941582   119.17428488   359.90525261
 C      5   4   3     2.633961553605   119.90545231     0.53049327
 H      3   2   1     2.053796580894   118.31371242   181.92295989
 H      4   3   2     2.051609433607   120.29334930   180.81199847
 H      5   4   3     2.052530235715   120.51034415   180.26178437
 H      6   5   4     2.050973928850   119.20613620   179.40790257
 N      1   2   3     2.698585204834   118.60184440   178.17929270
 B      2   1   3     2.999526106096   123.29037434   183.36203017
 H     12   2   1     8.068983609244   137.05728836   188.53485911
 H     13  12   2     3.353745165792   106.79020924   327.97563526
 H     13  12   2     3.339731665987    49.97661987   349.22093887
 C     14  13  12     5.269142548719   120.36651552   330.99845353
 H     16  14  13     2.068663960605    69.79938279   217.16457307
 H     16  14  13     2.065519470774   169.12395661   135.93720699
 H     16  14  13     2.061701898040    63.76639695    92.74842228
 C     16  14  13     4.731436149637   104.28082105   307.20241639
 H     20  16  14     2.064977685524    90.29143742   172.82502404
 H     20  16  14     2.066524161893    91.38867766   281.32052561
 H     20  16  14     2.066446940639   145.80827678    48.73976639
 C     12   2   1     3.677888537457   108.03898136    72.51832529
 C     24  12   2     2.639719546303   113.25399698   355.02054193
 C     25  24  12     2.646213920461   114.73127572   236.14121796
 H     12   2   1     2.260805338526   121.90044055   317.29719939
 H     12   2   1     2.297883632919   112.01795441   183.25660502
 C     13  12   2     4.055589091263    68.76040943   271.98929653
 C     16  14  13     2.876233883122    80.73912206   333.28250374
 O     29  13  12     2.726497848016    90.45643809   319.26046696
 O     30  16  14     2.722955252379   108.75187068   111.21580247
 B     31  29  13     2.599418915793   106.24274832   117.14820537
 C     29  13  12     2.876291732315    95.11816337   210.76528331
 H     34  29  13     2.065310570359   109.58436466    25.27401543
 H     34  29  13     2.061671387556   111.39277765   144.88345614
 H     34  29  13     2.068607874057   110.58755766   266.07121174
 C     13  12   2     2.064736050009    72.74607102   316.89776823
 H     25  24  12     2.047589938577   120.87668174    55.17732875
 C     26  25  24     2.604188441355   111.45637601   359.31166828
 H     26  25  24     2.044939273982   124.78113108   178.67779585
 H     40  26  25     2.045221155626   126.81038569   179.04018659
 S     40  26  25     3.204588151156   112.84358737   359.79413176
 C     11   1   2     2.787569250486   120.35080705    57.28785034
 C     11   1   2     2.792420888453   118.92789967   215.08653345
 C     45  11   1     2.891088781815   111.02139276   179.44094331
 H     45  11   1     2.093427945044   109.68142200    59.23085965
 H     45  11   1     2.094421865255   111.46821861   299.06925973
 C     46  45  11     2.907051849456   111.22254801    59.16066413
 H     46  45  11     2.098086584883   105.96883028   301.58254101
 H     46  45  11     2.099115715405   113.26716741   184.26153730
 C     44  11   1     2.891915904914   109.17825526   120.91698133
 H     49  46  45     2.101076419456   106.43033720   204.82527554
 H     49  46  45     2.100712005978   111.92430131    87.33758717
 H     44  11   1     2.101000958773   110.81587052     3.97113419
 H     44  11   1     2.099364492597   111.01108926   240.74568201
 H     52  44  11     2.099474246207   113.60538474   187.38956025
 H     52  44  11     2.104405848714   105.35968663   304.78827578

---------------------
BASIS SET INFORMATION
---------------------
There are 6 groups of distinct atoms

 Group   1 Type C   : 10s4p1d contracted to 3s2p1d pattern {631/31/1}
 Group   2 Type H   : 4s1p contracted to 2s1p pattern {31/1}
 Group   3 Type N   : 10s4p1d contracted to 3s2p1d pattern {631/31/1}
 Group   4 Type B   : 10s4p1d contracted to 3s2p1d pattern {631/31/1}
 Group   5 Type O   : 10s4p1d contracted to 3s2p1d pattern {631/31/1}
 Group   6 Type S   : 16s10p1d contracted to 4s3p1d pattern {6631/631/1}

Atom   0C    basis set group =>   1
Atom   1C    basis set group =>   1
Atom   2C    basis set group =>   1
Atom   3C    basis set group =>   1
Atom   4C    basis set group =>   1
Atom   5C    basis set group =>   1
Atom   6H    basis set group =>   2
Atom   7H    basis set group =>   2
Atom   8H    basis set group =>   2
Atom   9H    basis set group =>   2
Atom  10N    basis set group =>   3
Atom  11B    basis set group =>   4
Atom  12H    basis set group =>   2
Atom  13H    basis set group =>   2
Atom  14H    basis set group =>   2
Atom  15C    basis set group =>   1
Atom  16H    basis set group =>   2
Atom  17H    basis set group =>   2
Atom  18H    basis set group =>   2
Atom  19C    basis set group =>   1
Atom  20H    basis set group =>   2
Atom  21H    basis set group =>   2
Atom  22H    basis set group =>   2
Atom  23C    basis set group =>   1
Atom  24C    basis set group =>   1
Atom  25C    basis set group =>   1
Atom  26H    basis set group =>   2
Atom  27H    basis set group =>   2
Atom  28C    basis set group =>   1
Atom  29C    basis set group =>   1
Atom  30O    basis set group =>   5
Atom  31O    basis set group =>   5
Atom  32B    basis set group =>   4
Atom  33C    basis set group =>   1
Atom  34H    basis set group =>   2
Atom  35H    basis set group =>   2
Atom  36H    basis set group =>   2
Atom  37C    basis set group =>   1
Atom  38H    basis set group =>   2
Atom  39C    basis set group =>   1
Atom  40H    basis set group =>   2
Atom  41H    basis set group =>   2
Atom  42S    basis set group =>   6
Atom  43C    basis set group =>   1
Atom  44C    basis set group =>   1
Atom  45C    basis set group =>   1
Atom  46H    basis set group =>   2
Atom  47H    basis set group =>   2
Atom  48C    basis set group =>   1
Atom  49H    basis set group =>   2
Atom  50H    basis set group =>   2
Atom  51C    basis set group =>   1
Atom  52H    basis set group =>   2
Atom  53H    basis set group =>   2
Atom  54H    basis set group =>   2
Atom  55H    basis set group =>   2
Atom  56H    basis set group =>   2
Atom  57H    basis set group =>   2
---------------------------------
AUXILIARY/J BASIS SET INFORMATION
---------------------------------
There are 6 groups of distinct atoms

 Group   1 Type C   : 12s5p4d2f1g contracted to 6s4p3d1f1g pattern {711111/2111/211/2/1}
 Group   2 Type H   : 5s2p1d contracted to 3s1p1d pattern {311/2/1}
 Group   3 Type N   : 12s5p4d2f1g contracted to 6s4p3d1f1g pattern {711111/2111/211/2/1}
 Group   4 Type B   : 12s5p4d2f1g contracted to 6s4p3d1f1g pattern {711111/2111/211/2/1}
 Group   5 Type O   : 12s5p4d2f1g contracted to 6s4p3d1f1g pattern {711111/2111/211/2/1}
 Group   6 Type S   : 14s5p5d2f1g contracted to 8s4p3d1f1g pattern {71111111/2111/311/2/1}

Atom   0C    basis set group =>   1
Atom   1C    basis set group =>   1
Atom   2C    basis set group =>   1
Atom   3C    basis set group =>   1
Atom   4C    basis set group =>   1
Atom   5C    basis set group =>   1
Atom   6H    basis set group =>   2
Atom   7H    basis set group =>   2
Atom   8H    basis set group =>   2
Atom   9H    basis set group =>   2
Atom  10N    basis set group =>   3
Atom  11B    basis set group =>   4
Atom  12H    basis set group =>   2
Atom  13H    basis set group =>   2
Atom  14H    basis set group =>   2
Atom  15C    basis set group =>   1
Atom  16H    basis set group =>   2
Atom  17H    basis set group =>   2
Atom  18H    basis set group =>   2
Atom  19C    basis set group =>   1
Atom  20H    basis set group =>   2
Atom  21H    basis set group =>   2
Atom  22H    basis set group =>   2
Atom  23C    basis set group =>   1
Atom  24C    basis set group =>   1
Atom  25C    basis set group =>   1
Atom  26H    basis set group =>   2
Atom  27H    basis set group =>   2
Atom  28C    basis set group =>   1
Atom  29C    basis set group =>   1
Atom  30O    basis set group =>   5
Atom  31O    basis set group =>   5
Atom  32B    basis set group =>   4
Atom  33C    basis set group =>   1
Atom  34H    basis set group =>   2
Atom  35H    basis set group =>   2
Atom  36H    basis set group =>   2
Atom  37C    basis set group =>   1
Atom  38H    basis set group =>   2
Atom  39C    basis set group =>   1
Atom  40H    basis set group =>   2
Atom  41H    basis set group =>   2
Atom  42S    basis set group =>   6
Atom  43C    basis set group =>   1
Atom  44C    basis set group =>   1
Atom  45C    basis set group =>   1
Atom  46H    basis set group =>   2
Atom  47H    basis set group =>   2
Atom  48C    basis set group =>   1
Atom  49H    basis set group =>   2
Atom  50H    basis set group =>   2
Atom  51C    basis set group =>   1
Atom  52H    basis set group =>   2
Atom  53H    basis set group =>   2
Atom  54H    basis set group =>   2
Atom  55H    basis set group =>   2
Atom  56H    basis set group =>   2
Atom  57H    basis set group =>   2


           ************************************************************
           *        Program running with 25 parallel MPI-processes    *
           *              working on a common directory               *
           ************************************************************
------------------------------------------------------------------------------
                             ORCA STARTUP CALCULATIONS
                           -- RI-GTO INTEGRALS CHOSEN --
------------------------------------------------------------------------------
------------------------------------------------------------------------------
                   ___                                                        
                  /   \      - P O W E R E D   B Y -                         
                 /     \                                                     
                 |  |  |   _    _      __       _____    __    __             
                 |  |  |  | |  | |    /  \     |  _  \  |  |  /  |          
                  \  \/   | |  | |   /    \    | | | |  |  | /  /          
                 / \  \   | |__| |  /  /\  \   | |_| |  |  |/  /          
                |  |  |   |  __  | /  /__\  \  |    /   |      \           
                |  |  |   | |  | | |   __   |  |    \   |  |\   \          
                \     /   | |  | | |  |  |  |  | |\  \  |  | \   \       
                 \___/    |_|  |_| |__|  |__|  |_| \__\ |__|  \__/        
                                                                              
                      - O R C A' S   B I G   F R I E N D -                    
                                      &                                       
                       - I N T E G R A L  F E E D E R -                       
                                                                              
 v1 FN, 2020, v2 2021, v3 2022-2024                                           
------------------------------------------------------------------------------


----------------------
SHARK INTEGRAL PACKAGE
----------------------

Number of atoms                             ...     58
Number of basis functions                   ...    537
Number of shells                            ...    257
Maximum angular momentum                    ...      2
Integral batch strategy                     ... SHARK/LIBINT Hybrid
RI-J (if used) integral strategy            ... SPLIT-RIJ (Revised 2003 algorithm where possible)
Printlevel                                  ...      1
Contraction scheme used                     ... SEGMENTED contraction
Prescreening option                         ... SCHWARTZ
   Thresh                                   ... 2.500e-11
   Tcut                                     ... 2.500e-12
   Tpresel                                  ... 2.500e-12 
Coulomb Range Separation                    ... NOT USED
Exchange Range Separation                   ... Long Range
   Mu parameter                             ... 2.500e-01
   Scaling (regular/separated)              ... 1.957e-01 8.043e-01
Robust (split-)RI terms used:
  metric    (central integrals)             ... YES
  density   (r.h.s.  integrals)             ... YES
  potential (l.h.s.  integrals)             ... YES
Multipole approximations                    ... NOT USED
Finite Nucleus Model                        ... NOT USED
CABS basis                                  ... NOT available
Auxiliary Coulomb fitting basis             ... AVAILABLE
   # of basis functions in Aux-J            ...   1666
   # of shells in Aux-J                     ...    562
   Maximum angular momentum in Aux-J        ...      4
Auxiliary J/K fitting basis                 ... NOT available
Auxiliary Correlation fitting basis         ... NOT available
Auxiliary 'external' fitting basis          ... NOT available

Checking pre-screening integrals            ... done (  0.0 sec) Dimension = 257
   => SHARK Basis and OBASIS are compatible. Storing Pre-screening
Shell pair information
Shell pair cut-off parameter TPreSel        ...   2.5e-12
Total number of shell pairs                 ...     33153
Shell pairs after pre-screening             ...     21496
Total number of primitive shell pairs       ...    164568
Primitive shell pairs kept                  ...     60102
          la=0 lb=0:   6812 shell pairs
          la=1 lb=0:   8135 shell pairs
          la=1 lb=1:   2492 shell pairs
          la=2 lb=0:   2385 shell pairs
          la=2 lb=1:   1452 shell pairs
          la=2 lb=2:    220 shell pairs

Checking whether 4 symmetric matrices of dimension 537 fit in memory
:Max Core in MB      =   6758.00
 MB in use           =     31.34
 MB left             =   6726.66
 MB needed           =      4.41
 Data fit in memory  = YES
Calculating RI/J V-Matrix + Cholesky decomp.... done (  0.2 sec)
Calculating Nuclear repulsion               ... done (  0.0 sec) ENN=   2803.592820153392 Eh

Diagonalization of the overlap matrix:
Smallest eigenvalue                        ... 4.241e-04
Time for diagonalization                   ...    0.044 sec
Threshold for overlap eigenvalues          ... 1.000e-07
Number of eigenvalues below threshold      ... 0
Time for construction of square roots      ...    0.026 sec
Total time needed                          ...    0.074 sec

-------------------
DFT GRID GENERATION
-------------------

General Integration Accuracy     IntAcc      ... 4.388
Radial Grid Type                 RadialGrid  ... OptM3 with GC (2021)
Angular Grid (max. ang.)         AngularGrid ... 4 (Lebedev-302)
Angular grid pruning method      GridPruning ... 4 (adaptive)
Weight generation scheme         WeightScheme... mBecke (2022)
Basis function cutoff            BFCut       ... 1.0000e-11
Integration weight cutoff        WCut        ... 1.0000e-14
Partially contracted basis set               ... off
Rotationally invariant grid construction     ... off
Angular grids for H and He will be reduced by one unit

Total number of grid points                  ...   258363
Total number of batches                      ...     4067
Average number of points per batch           ...       63
Average number of grid points per atom       ...     4455

--------------------
COSX GRID GENERATION
--------------------

GRIDX 1
-------
General Integration Accuracy     IntAcc      ... 3.816
Radial Grid Type                 RadialGrid  ... OptM3 with GC (2021)
Angular Grid (max. ang.)         AngularGrid ... 1 (Lebedev-50)
Angular grid pruning method      GridPruning ... 4 (adaptive)
Weight generation scheme         WeightScheme... mBecke (2022)
Basis function cutoff            BFCut       ... 1.0000e-11
Integration weight cutoff        WCut        ... 1.0000e-14
Partially contracted basis set               ... on
Rotationally invariant grid construction     ... off
Angular grids for H and He will be reduced by one unit

Total number of grid points                  ...    33841
Total number of batches                      ...      298
Average number of points per batch           ...      113
Average number of grid points per atom       ...      583
UseSFitting                                  ... on

GRIDX 2
-------
General Integration Accuracy     IntAcc      ... 4.020
Radial Grid Type                 RadialGrid  ... OptM3 with GC (2021)
Angular Grid (max. ang.)         AngularGrid ... 2 (Lebedev-110)
Angular grid pruning method      GridPruning ... 4 (adaptive)
Weight generation scheme         WeightScheme... mBecke (2022)
Basis function cutoff            BFCut       ... 1.0000e-11
Integration weight cutoff        WCut        ... 1.0000e-14
Partially contracted basis set               ... on
Rotationally invariant grid construction     ... off
Angular grids for H and He will be reduced by one unit

Total number of grid points                  ...    68842
Total number of batches                      ...      569
Average number of points per batch           ...      120
Average number of grid points per atom       ...     1187
UseSFitting                                  ... on

GRIDX 3
-------
General Integration Accuracy     IntAcc      ... 4.338
Radial Grid Type                 RadialGrid  ... OptM3 with GC (2021)
Angular Grid (max. ang.)         AngularGrid ... 3 (Lebedev-194)
Angular grid pruning method      GridPruning ... 4 (adaptive)
Weight generation scheme         WeightScheme... mBecke (2022)
Basis function cutoff            BFCut       ... 1.0000e-11
Integration weight cutoff        WCut        ... 1.0000e-14
Partially contracted basis set               ... on
Rotationally invariant grid construction     ... off
Angular grids for H and He will be reduced by one unit

Total number of grid points                  ...   149805
Total number of batches                      ...     1200
Average number of points per batch           ...      124
Average number of grid points per atom       ...     2583
UseSFitting                                  ... on
Grids setup in   2.6 sec
Initializing property integral containers    ... done (  0.0 sec)

SHARK setup successfully completed in   3.2 seconds

Maximum memory used throughout the entire STARTUP-calculation: 76.8 MB


           ************************************************************
           *        Program running with 25 parallel MPI-processes    *
           *              working on a common directory               *
           ************************************************************
-------------------------------------------------------------------------------
                                 ORCA GUESS
                   Start orbitals & Density for SCF / CASSCF
-------------------------------------------------------------------------------

------------
SCF SETTINGS
------------
Hamiltonian:
 Density Functional     Method          .... DFT(GTOs)
 Exchange Functional    Exchange        .... WB97X-D3
 Correlation Functional Correlation     .... WB97X-D3
 Gradients option       PostSCFGGA      .... off
 Hybrid DFT is turned on
   Fraction HF Exchange ScalHFX         ....  0.195728
   Scaling of DF-GGA-X  ScalDFX         ....  0.000000
   Scaling of DF-GGA-C  ScalDFC         ....  1.000000
   Scaling of DF-LDA-C  ScalLDAC        ....  1.000000
   Perturbative correction              ....  0.000000
 Long-range corrected/Screened/Range-Separated Hybrid DFT is turned on
   Amount of maximum screened exact exchange              ....  0.804272
   Range separation parameter mu (erf(mu*r12)/r12)        ....  0.250000
 RI-approximation to the Coulomb term is turned on
   Number of AuxJ basis functions       .... 1666
   RIJ-COSX (HFX calculated with COS-X)).... on


General Settings:
 Integral files         IntName         .... input
 Hartree-Fock type      HFTyp           .... RHF
 Total Charge           Charge          ....    0
 Multiplicity           Mult            ....    1
 Number of Electrons    NEL             ....  206
 Basis Dimension        Dim             ....  537
 Nuclear Repulsion      ENuc            ....   2803.5928201534 Eh

Convergence Acceleration:
 AO-DIIS                CNVDIIS         .... on
   Start iteration      DIISMaxIt       ....     0
   Startup error        DIISStart       ....  0.200000
   # of expansion vecs  DIISMaxEq       ....     5
   Bias factor          DIISBfac        ....   1.050
   Max. coefficient     DIISMaxC        ....  10.000
 MO-DIIS                CNVKDIIS        .... off
 Trust-Rad. Augm. Hess. CNVTRAH         .... auto
   Auto Start mean grad. ratio tolernc. ....  1.125000
   Auto Start start iteration           ....    50
   Auto Start num. interpolation iter.  ....    10
   Max. Number of Micro iterations      ....    24
   Max. Number of Macro iterations      .... Maxiter - #DIIS iter
   Number of Davidson start vectors     ....     2
   Converg. threshold    (grad. norm)   ....   1.000e-05
   Grad. Scal. Fac. for Micro threshold ....   0.100
   Minimum threshold for Micro iter.    ....   1.000e-02
   NR start threshold (gradient norm)   ....   1.000e-04
   Initial trust radius                 ....   0.400
   Minimum AH scaling param. (alpha)    ....   1.000
   Maximum AH scaling param. (alpha)    .... 1000.000
   Quad. conv. algorithm                .... NR
   White noise on init. David. guess    .... on
   Maximum white noise                  ....   0.010
   Pseudo random numbers                .... off
   Inactive MOs                         .... canonical
   Orbital update algorithm             .... Taylor
   Preconditioner                       .... Diag
   Full preconditioner red. dimension   ....   250
 SOSCF                 CNVSOSCF           .... on
   Start iteration     SOSCFMaxIt         ....   150
   Startup grad/error  SOSCFStart         ....  0.001000
   Hessian update      SOSCFHessUp        .... L-BFGS
   Autom. constraints  SOSCFAutoConstrain .... off
 Level Shifting         CNVShift        .... on
   Level shift para.    LevelShift      ....    0.2500
   Turn off err/grad.   ShiftErr        ....    0.0000
 Zerner damping         CNVZerner       .... off
 Static damping         CNVDamp         .... on
   Fraction old density DampFac         ....    0.8500
   Max. Damping (<1)    DampMax         ....    0.9800
   Min. Damping (>=0)   DampMin         ....    0.0000
   Turn off err/grad.   DampErr         ....    0.0300

SCF Procedure:
 Maximum # iterations   MaxIter         ....   125
 SCF integral mode      SCFMode         .... Direct
   Integral package                     .... SHARK and LIBINT hybrid scheme
 Reset frequency        DirectResetFreq ....    20
 Integral Threshold     Thresh          ....  2.500e-11 Eh
 Primitive CutOff       TCut            ....  2.500e-12 Eh

Convergence Tolerance:
 Convergence Check Mode ConvCheckMode   .... Total+1el-Energy
 Convergence forced     ConvForced      .... 0
 Energy Change          TolE            ....  1.000e-08 Eh
 1-El. energy change                    ....  1.000e-05 Eh
 Orbital Gradient       TolG            ....  1.000e-05
 Orbital Rotation angle TolX            ....  1.000e-05
 DIIS Error             TolErr          ....  5.000e-07

------------------------------
INITIAL GUESS: MODEL POTENTIAL
------------------------------
Loading Hartree-Fock densities                     ... done
Calculating cut-offs                               ... done
Initializing the effective Hamiltonian             ... done
Setting up the integral package (SHARK)            ... done
Starting the Coulomb interaction                   ... done (   0.2 sec)
Making the grid                                    ... done (   0.3 sec)
Mapping shells                                     ... done
Starting the XC term evaluation                    ... done (   0.1 sec)
  promolecular density results
     # of electrons  =    205.976496380
     EX              =   -172.020873298
     EC              =     -6.982347694
     EX+EC           =   -179.003220992
Transforming the Hamiltonian                       ... done (   0.0 sec)
Diagonalizing the Hamiltonian                      ... done (   0.0 sec)
Back transforming the eigenvectors                 ... done (   0.0 sec)
Now organizing SCF variables                       ... done
                      ------------------
                      INITIAL GUESS DONE (   0.7 sec)
                      ------------------
             **** ENERGY FILE WAS UPDATED (input.en.tmp) ****
Finished Guess after   1.0 sec
Maximum memory used throughout the entire GUESS-calculation: 38.4 MB


           ************************************************************
           *        Program running with 25 parallel MPI-processes    *
           *              working on a common directory               *
           ************************************************************

-------------------------------------------------------------------------------------------
                                      ORCA LEAN-SCF
                              memory conserving SCF solver
-------------------------------------------------------------------------------------------

----------------------------------------D-I-I-S--------------------------------------------
Iteration    Energy (Eh)           Delta-E    RMSDP     MaxDP     DIISErr   Damp  Time(sec)
-------------------------------------------------------------------------------------------
               ***  Starting incremental Fock matrix formation  ***
    1    -1471.0614802582022094     0.00e+00  3.48e-03  3.45e-02  1.95e-01  0.850   6.1
    2    -1471.2167520800039711    -1.55e-01  3.47e-03  3.44e-02  1.48e-01  0.850   3.0
                               ***Turning on AO-DIIS***
    3    -1471.3312454677679852    -1.14e-01  2.20e-03  1.53e-02  1.05e-01  0.850   2.9
    4    -1471.4125645512367555    -8.13e-02  1.67e-03  1.01e-02  8.71e-02  0.850   2.8
    5    -1471.4744776747938886    -6.19e-02  1.36e-03  8.81e-03  7.42e-02  0.850   2.7
    6    -1471.5240268816023672    -4.95e-02  1.16e-03  7.58e-03  6.32e-02  0.850   2.7
    7    -1471.5646936983084743    -4.07e-02  1.00e-03  6.45e-03  5.29e-02  0.850   2.7
    8    -1471.5982916535649565    -3.36e-02  8.56e-04  5.75e-03  4.40e-02  0.850   2.6
    9    -1471.6260664899891708    -2.78e-02  7.30e-04  5.23e-03  3.69e-02  0.850   2.6
   10    -1471.6491054858179268    -2.30e-02  6.21e-04  4.70e-03  3.11e-02  0.850   2.6
   11    -1471.6682999872755317    -1.92e-02  5.29e-04  4.15e-03  2.63e-02  0.850   2.5
[...]
160:   3166.27   0.001370    6.92  0.000135  ( 0.000284 -0.002989  0.011226)
161:   3167.19   0.003063   15.48  0.000302  ( 0.015987 -0.006016 -0.003162)
162:   3170.13   0.004104   20.74  0.000404  ( 0.020059 -0.001009  0.000806)
163:   3172.82   0.008506   42.99  0.000837  ( 0.019988  0.020606 -0.003537)
164:   3175.52   0.005773   29.17  0.000567  (-0.009227  0.021848 -0.002194)
165:   3188.00   0.002449   12.37  0.000240  ( 0.007661  0.003165 -0.013076)
166:   3188.62   0.004418   22.32  0.000432  (-0.010320  0.000111 -0.018051)
167:   3201.66   0.000856    4.33  0.000083  (-0.008531 -0.001584  0.002851)
168:   3209.33   0.005084   25.69  0.000494  (-0.007926 -0.020774  0.000145)
169:   3231.49   0.007608   38.45  0.000735  (-0.021028  0.007974  0.015131)
170:   3249.19   0.003085   15.59  0.000296  ( 0.007574  0.015440  0.000764)
171:   3258.41   0.000255    1.29  0.000024  ( 0.002845  0.001697 -0.003661)
172:   3270.19   0.000159    0.80  0.000015  ( 0.002639 -0.000191 -0.002858)
173:   3283.08   0.000171    0.87  0.000016  ( 0.002013  0.002806 -0.002089)

* The epsilon (eps) is given for a Dirac delta lineshape.
** The dipole moment derivative (T) already includes vibrational overlap.

The first frequency considered to be a vibration is 7
The total number of vibrations considered is 167


--------------------------
THERMOCHEMISTRY AT 298.15K
--------------------------

Temperature         ...   298.15 K
Pressure            ...     1.00 atm
Total Mass          ...   383.16 AMU
Quasi RRHO          ...     True
Cut-Off Frequency   ...     1.00 cm^-1

Throughout the following assumptions are being made:
  (1) The electronic state is orbitally nondegenerate
  (2) There are no thermally accessible electronically excited states
  (3) Hindered rotations indicated by low frequency modes are not
      treated as such but are treated as vibrations and this may
      cause some error
  (4) All equations used are the standard statistical mechanics
      equations for an ideal gas
  (5) All vibrations are strictly harmonic

freq.      16.33  E(vib)   ...       0.57 
freq.      34.79  E(vib)   ...       0.54 
freq.      48.10  E(vib)   ...       0.53 
freq.      52.46  E(vib)   ...       0.52 
freq.      61.91  E(vib)   ...       0.51 
freq.      71.06  E(vib)   ...       0.50 
freq.      83.53  E(vib)   ...       0.48 
freq.      99.60  E(vib)   ...       0.46 
freq.     113.78  E(vib)   ...       0.44 
freq.     124.49  E(vib)   ...       0.43 
freq.     133.41  E(vib)   ...       0.42 
freq.     139.30  E(vib)   ...       0.42 
freq.     161.78  E(vib)   ...       0.39 
freq.     191.67  E(vib)   ...       0.36 
freq.     214.29  E(vib)   ...       0.34 
freq.     217.62  E(vib)   ...       0.33 
freq.     227.56  E(vib)   ...       0.33 
freq.     249.07  E(vib)   ...       0.31 
freq.     262.25  E(vib)   ...       0.29 
freq.     282.96  E(vib)   ...       0.28 
freq.     291.51  E(vib)   ...       0.27 
freq.     296.61  E(vib)   ...       0.27 
freq.     303.83  E(vib)   ...       0.26 
freq.     309.73  E(vib)   ...       0.26 
freq.     311.80  E(vib)   ...       0.25 
freq.     319.14  E(vib)   ...       0.25 
freq.     354.56  E(vib)   ...       0.22 
freq.     361.36  E(vib)   ...       0.22 
freq.     371.68  E(vib)   ...       0.21 
freq.     388.86  E(vib)   ...       0.20 
freq.     401.09  E(vib)   ...       0.19 
freq.     427.51  E(vib)   ...       0.18 
freq.     460.27  E(vib)   ...       0.16 
freq.     483.17  E(vib)   ...       0.15 
freq.     492.66  E(vib)   ...       0.14 
freq.     499.05  E(vib)   ...       0.14 
freq.     509.75  E(vib)   ...       0.14 
freq.     531.42  E(vib)   ...       0.13 
freq.     545.71  E(vib)   ...       0.12 
freq.     562.04  E(vib)   ...       0.11 
freq.     569.35  E(vib)   ...       0.11 
freq.     588.49  E(vib)   ...       0.10 
freq.     591.12  E(vib)   ...       0.10 
freq.     613.42  E(vib)   ...       0.10 
freq.     617.83  E(vib)   ...       0.09 
freq.     653.51  E(vib)   ...       0.08 
freq.     685.62  E(vib)   ...       0.07 
freq.     721.26  E(vib)   ...       0.07 
freq.     755.24  E(vib)   ...       0.06 
freq.     765.18  E(vib)   ...       0.06 
freq.     773.38  E(vib)   ...       0.05 
freq.     783.69  E(vib)   ...       0.05 
freq.     785.77  E(vib)   ...       0.05 
freq.     791.88  E(vib)   ...       0.05 
freq.     797.40  E(vib)   ...       0.05 
freq.     813.81  E(vib)   ...       0.05 
freq.     868.46  E(vib)   ...       0.04 
freq.     873.75  E(vib)   ...       0.04 
freq.     882.04  E(vib)   ...       0.04 
freq.     898.41  E(vib)   ...       0.03 
freq.     903.82  E(vib)   ...       0.03 
freq.     904.64  E(vib)   ...       0.03 
freq.     919.26  E(vib)   ...       0.03 
freq.     938.00  E(vib)   ...       0.03 
freq.     948.28  E(vib)   ...       0.03 
freq.     950.08  E(vib)   ...       0.03 
freq.     955.27  E(vib)   ...       0.03 
freq.     968.86  E(vib)   ...       0.03 
freq.     970.37  E(vib)   ...       0.03 
freq.     979.97  E(vib)   ...       0.02 
freq.     986.29  E(vib)   ...       0.02 
freq.     989.26  E(vib)   ...       0.02 
freq.     998.49  E(vib)   ...       0.02 
freq.    1011.44  E(vib)   ...       0.02 
freq.    1016.22  E(vib)   ...       0.02 
freq.    1021.01  E(vib)   ...       0.02 
freq.    1035.37  E(vib)   ...       0.02 
freq.    1054.33  E(vib)   ...       0.02 
freq.    1071.77  E(vib)   ...       0.02 
freq.    1097.93  E(vib)   ...       0.02 
freq.    1103.41  E(vib)   ...       0.02 
freq.    1114.38  E(vib)   ...       0.01 
freq.    1120.31  E(vib)   ...       0.01 
freq.    1137.97  E(vib)   ...       0.01 
freq.    1145.34  E(vib)   ...       0.01 
freq.    1151.28  E(vib)   ...       0.01 
freq.    1160.12  E(vib)   ...       0.01 
freq.    1185.73  E(vib)   ...       0.01 
freq.    1195.83  E(vib)   ...       0.01 
freq.    1203.39  E(vib)   ...       0.01 
freq.    1208.26  E(vib)   ...       0.01 
freq.    1214.75  E(vib)   ...       0.01 
freq.    1216.57  E(vib)   ...       0.01 
freq.    1247.07  E(vib)   ...       0.01 
freq.    1260.27  E(vib)   ...       0.01 
freq.    1269.36  E(vib)   ...       0.01 
freq.    1275.67  E(vib)   ...       0.01 
freq.    1287.16  E(vib)   ...       0.01 
freq.    1290.10  E(vib)   ...       0.01 
freq.    1294.35  E(vib)   ...       0.01 
freq.    1305.85  E(vib)   ...       0.01 
freq.    1309.84  E(vib)   ...       0.01 
freq.    1319.57  E(vib)   ...       0.01 
freq.    1338.45  E(vib)   ...       0.01 
freq.    1345.55  E(vib)   ...       0.01 
freq.    1350.46  E(vib)   ...       0.01 
freq.    1360.48  E(vib)   ...       0.01 
freq.    1391.48  E(vib)   ...       0.00 
freq.    1394.41  E(vib)   ...       0.00 
freq.    1396.37  E(vib)   ...       0.00 
freq.    1403.19  E(vib)   ...       0.00 
freq.    1413.35  E(vib)   ...       0.00 
freq.    1422.16  E(vib)   ...       0.00 
freq.    1424.29  E(vib)   ...       0.00 
freq.    1431.87  E(vib)   ...       0.00 
freq.    1441.01  E(vib)   ...       0.00 
freq.    1441.35  E(vib)   ...       0.00 
freq.    1476.18  E(vib)   ...       0.00 
freq.    1485.86  E(vib)   ...       0.00 
freq.    1494.98  E(vib)   ...       0.00 
freq.    1495.78  E(vib)   ...       0.00 
freq.    1497.55  E(vib)   ...       0.00 
freq.    1498.26  E(vib)   ...       0.00 
freq.    1501.10  E(vib)   ...       0.00 
freq.    1506.67  E(vib)   ...       0.00 
freq.    1516.72  E(vib)   ...       0.00 
freq.    1517.97  E(vib)   ...       0.00 
freq.    1520.48  E(vib)   ...       0.00 
freq.    1522.69  E(vib)   ...       0.00 
freq.    1527.85  E(vib)   ...       0.00 
freq.    1535.65  E(vib)   ...       0.00 
freq.    1537.60  E(vib)   ...       0.00 
freq.    1547.55  E(vib)   ...       0.00 
freq.    1569.11  E(vib)   ...       0.00 
freq.    1654.19  E(vib)   ...       0.00 
freq.    1688.34  E(vib)   ...       0.00 
freq.    2468.47  E(vib)   ...       0.00 
freq.    2641.51  E(vib)   ...       0.00 
freq.    2973.90  E(vib)   ...       0.00 
freq.    3029.47  E(vib)   ...       0.00 
freq.    3074.90  E(vib)   ...       0.00 
freq.    3077.64  E(vib)   ...       0.00 
freq.    3081.01  E(vib)   ...       0.00 
freq.    3081.40  E(vib)   ...       0.00 
freq.    3082.67  E(vib)   ...       0.00 
freq.    3086.03  E(vib)   ...       0.00 
freq.    3086.97  E(vib)   ...       0.00 
freq.    3097.87  E(vib)   ...       0.00 
freq.    3118.21  E(vib)   ...       0.00 
freq.    3134.48  E(vib)   ...       0.00 
freq.    3146.59  E(vib)   ...       0.00 
freq.    3163.67  E(vib)   ...       0.00 
freq.    3164.33  E(vib)   ...       0.00 
freq.    3166.27  E(vib)   ...       0.00 
freq.    3167.19  E(vib)   ...       0.00 
freq.    3170.13  E(vib)   ...       0.00 
freq.    3172.82  E(vib)   ...       0.00 
freq.    3175.52  E(vib)   ...       0.00 
freq.    3188.00  E(vib)   ...       0.00 
freq.    3188.62  E(vib)   ...       0.00 
freq.    3201.66  E(vib)   ...       0.00 
freq.    3209.33  E(vib)   ...       0.00 
freq.    3231.49  E(vib)   ...       0.00 
freq.    3249.19  E(vib)   ...       0.00 
freq.    3258.41  E(vib)   ...       0.00 
freq.    3270.19  E(vib)   ...       0.00 
freq.    3283.08  E(vib)   ...       0.00 

------------
INNER ENERGY
------------

The inner energy is: U= E(el) + E(ZPE) + E(vib) + E(rot) + E(trans)
    E(el)   - is the total energy from the electronic structure calculation
              = E(kin-el) + E(nuc-el) + E(el-el) + E(nuc-nuc)
    E(ZPE)  - the the zero temperature vibrational energy from the frequency calculation
    E(vib)  - the the finite temperature correction to E(ZPE) due to population
              of excited vibrational states
    E(rot)  - is the rotational thermal energy
    E(trans)- is the translational thermal energy

Summary of contributions to the inner energy U:
Electronic energy                ...  -1471.81831859 Eh
Zero point energy                ...      0.49815437 Eh     312.60 kcal/mol
Thermal vibrational correction   ...      0.02306644 Eh      14.47 kcal/mol
Thermal rotational correction    ...      0.00141627 Eh       0.89 kcal/mol
Thermal translational correction ...      0.00141627 Eh       0.89 kcal/mol
-----------------------------------------------------------------------
Total thermal energy                  -1471.29426524 Eh


Summary of corrections to the electronic energy:
(perhaps to be used in another calculation)
Total thermal correction                  0.02589898 Eh      16.25 kcal/mol
Non-thermal (ZPE) correction              0.49815437 Eh     312.60 kcal/mol
-----------------------------------------------------------------------
Total correction                          0.52405335 Eh     328.85 kcal/mol


--------
ENTHALPY
--------

The enthalpy is H = U + kB*T
                kB is Boltzmann's constant
Total thermal energy              ...  -1471.29426524 Eh 
Thermal Enthalpy correction       ...      0.00094421 Eh       0.59 kcal/mol
-----------------------------------------------------------------------
Total Enthalpy                    ...  -1471.29332103 Eh


Note: Only C1 symmetry has been detected, increase convergence thresholds 
      if your molecule has a higher symmetry. Symmetry factor of 1.0 is   
      used for the rotational entropy correction. 
 

Note: Rotational entropy computed according to Herzberg 
Infrared and Raman Spectra, Chapter V,1, Van Nostrand Reinhold, 1945 
Point Group:  C1, Symmetry Number:   1  
Rotational constants in cm-1:     0.010005     0.004476     0.003583 

Vibrational entropy computed according to the QRRHO of S. Grimme
Chem.Eur.J. 2012 18 9955 using a reference frequency of 100.0 cm-1


-------
ENTROPY
-------

The entropy contributions are T*S = T*(S(el)+S(vib)+S(rot)+S(trans))
     S(el)   - electronic entropy
     S(vib)  - vibrational entropy
     S(rot)  - rotational entropy
     S(trans)- translational entropy
The entropies will be listed as multiplied by the temperature to get
units of energy

Electronic entropy                ...      0.00000000 Eh      0.00 kcal/mol
Vibrational entropy               ...      0.04030619 Eh     25.29 kcal/mol
Rotational entropy                ...      0.01689687 Eh     10.60 kcal/mol
Translational entropy             ...      0.02077371 Eh     13.04 kcal/mol
-----------------------------------------------------------------------
Final entropy term                ...      0.07797676 Eh     48.93 kcal/mol

In case the symmetry of your molecule has not been determined correctly
or in case you have a reason to use a different symmetry number we print 
out the resulting rotational entropy values for sn=1,12:

 non-linear molecules -----------------------------------
|  sn= 1 | S(rot)=       0.01689687 Eh     10.60 kcal/mol|
|  sn= 2 | S(rot)=       0.01624241 Eh     10.19 kcal/mol|
|  sn= 3 | S(rot)=       0.01585958 Eh      9.95 kcal/mol|
|  sn= 4 | S(rot)=       0.01558795 Eh      9.78 kcal/mol|
|  sn= 5 | S(rot)=       0.01537727 Eh      9.65 kcal/mol|
|  sn= 6 | S(rot)=       0.01520512 Eh      9.54 kcal/mol|
|  sn= 7 | S(rot)=       0.01505957 Eh      9.45 kcal/mol|
|  sn= 8 | S(rot)=       0.01493350 Eh      9.37 kcal/mol|
|  sn= 9 | S(rot)=       0.01482229 Eh      9.30 kcal/mol|
|  sn=10 | S(rot)=       0.01472281 Eh      9.24 kcal/mol|
|  sn=11 | S(rot)=       0.01463282 Eh      9.18 kcal/mol|
|  sn=12 | S(rot)=       0.01455066 Eh      9.13 kcal/mol|
 linear molecules ---------------------------------------
|  Dinfh | S(rot)=       0.01064309 Eh      6.68 kcal/mol|
|  Cinfv | S(rot)=       0.01129755 Eh      7.09 kcal/mol|
 --------------------------------------------------------


-------------------
GIBBS FREE ENERGY
-------------------

The Gibbs free energy is G = H - T*S

Total enthalpy                    ...  -1471.29332103 Eh 
Total entropy correction          ...     -0.07797676 Eh    -48.93 kcal/mol
-----------------------------------------------------------------------
Final Gibbs free energy         ...  -1471.37129779 Eh

For completeness - the Gibbs free energy minus the electronic energy
G-E(el)                           ...      0.44702080 Eh    280.51 kcal/mol


Maximum memory used throughout the entire PROP-calculation: 449.7 MB

--------------------------------
SUGGESTED CITATIONS FOR THIS RUN
--------------------------------

Below you find a list of papers that are relevant to this ORCA run
We neither can nor want to force you to cite these papers, but we appreciate if you do
You receive ORCA, which is the product of decades of hard work by many enthusiastic individuals, for free
The only thing we kindly ask in return is that you cite our papers,
We deeply appreciate it, if you show your appreciation for ORCA by not just citing the generic ORCA reference.

Please note that relegating all ORCA citations to the supporting information does *not* help us.
SI sections are not indexed - citations you put there will not count into any citation statistics
But we need these citations in order to attract the funding resources that allow us to do what we are doing

Therefore, if you are a happy ORCA user, please consider citing a few of the papers listed below in the main body of your paper

In addition to the list printed below, the program has created the file input.bibtex that contains the list in bibtex format
You can import this file easily into all common literature databanks and citation aid programs


List of essential papers. We consider these as the minimum necessary citations

  1. Neese, F.
     Software update: the ORCA program system, version 6.0
     WIRES Comput. Molec. Sci. 2025 15(1), e70019
     doi.org/10.1002/wcms.7019

List of papers to cite with high priority. The work reported in these papers was absolutely
necessary for this run to complete.
Our perspective: the developers of density functionals and basis sets usually get cited in chemistry papers
Good! But without the algorithms to do something with them, the functionals or basis sets would not do anything.
Hence, in our opinion, the algorithm design and method developments papers are equally worthy of getting cited

  1. Neese, F.
     An improvement of the resolution of the identity approximation for the formation of the Coulomb matrix
     J. Comp. Chem. 2003 24(14), 1740-1747
     doi.org/10.1002/jcc.10318
  2. Neese, F.; Wennmohs, F.; Hansen, A.; Becker, U.
     Efficient, approximate and parallel Hartree-Fock and hybrid DFT calculations. A 'chain-of-spheres' algorithm for the Hartree-Fock exchange
     Chem. Phys. 2009 356(1-3), 98-109
     doi.org/10.1016/j.chemphys.2008.10.036
  3. Grimme, S.; Antony, J.; Ehrlich, S.; Krieg, H.
     A consistent and accurate ab initio parametrization of density functional dispersion correction (DFT-D) for the 94 elements H-Pu
     J. Chem. Phys. 2010 132 , 154104
     doi.org/10.1063/1.3382344
  4. Bykov, D.; Petrenko, T.; Izsak, R.; Kossmann, S.; Becker, U.; Valeev, E.; Neese, F.
     Efficient implementation of the analytic second derivatives of Hartree-Fock and hybrid DFT energies: a detailed analysis of different approximations
     Molec. Phys. 2015 113 , 1961-1977
     doi.org/10.1080/00268976.2015.1025114
  5. Helmich-Paris, B.; de Souza, B.; Neese, F.; Izsák, R.
     An improved chain of spheres for exchange algorithm
     J. Chem. Phys. 2021 155(10), 104109
     doi.org/10.1063/5.0058766
  6. Neese, F.
     The SHARK Integral Generation and Digestion System
     J. Comp. Chem. 2022 44(3), 381
     doi.org/10.1002/jcc.26942

List of suggested additional citations. These are papers that are important in the 'surrounding' of 
of this run, or papers that preceded the highly important papers. If you like your results we are grateful for a citation.

  1. Izsak, R.; Neese, F.
     An overlap fitted chain of spheres exchange method
     J. Chem. Phys. 2011 135 , 144105
     doi.org/10.1063/1.3646921
  2. Izsak, R.; Hansen, A.; Neese, F.
     The resolution of identity and chain of spheres approximations for the LPNO-CCSD singles Fock term
     Molec. Phys. 2012 110 , 2413-2417
     doi.org/10.1080/00268976.2012.687466
  3. Neese, F.
     The ORCA program system
     WIRES Comput. Molec. Sci. 2012 2(1), 73-78
     doi.org/10.1002/wcms.81
  4. Izsak, R.; Neese, F.; Klopper, W.
     Robust fitting techniques in the chain of spheres approximation to the Fock exchange: The role of the complementary space
     J. Chem. Phys. 2013 139 , 
     doi.org/10.1063/1.4819264
  5. Neese, F.
     Software update: the ORCA program system, version 4.0
     WIRES Comput. Molec. Sci. 2018 8(1), 1-6
     doi.org/10.1002/wcms.1327
  6. Neese, F.; Wennmohs, F.; Becker, U.; Riplinger, C.
     The ORCA quantum chemistry program package
     J. Chem. Phys. 2020 152(22), 224108
     doi.org/10.1063/5.0004608
  7. Neese, F.
     Software update: The ORCA program system—Version 5.0
     WIRES Comput. Molec. Sci. 2022 12(1), e1606
     doi.org/10.1002/wcms.1606

List of optional additional citations

  1. Neese, F.
     Approximate second-order SCF convergence for spin unrestricted wavefunctions
     Chem. Phys. Lett. 2000 325(1-3), 93-98
     doi.org/10.1016/s0009-2614(00)00662-x

Timings for individual modules:

Sum of individual times          ...     3507.512 sec (=  58.459 min)
Startup calculation              ...      142.363 sec (=   2.373 min)   4.1 %
SCF iterations                   ...     1893.763 sec (=  31.563 min)  54.0 %
Property integrals               ...      185.350 sec (=   3.089 min)   5.3 %
SCF Response                     ...      320.697 sec (=   5.345 min)   9.1 %
Property calculations            ...      256.677 sec (=   4.278 min)   7.3 %
SCF Gradient evaluation          ...      707.516 sec (=  11.792 min)  20.2 %
Geometry relaxation              ...        1.145 sec (=   0.019 min)   0.0 %
                             ****ORCA TERMINATED NORMALLY****
TOTAL RUN TIME: 0 days 1 hours 10 minutes 57 seconds 710 msec
