33
	Energy:     143.5691926
C         -2.97913       -1.20124        0.30437
C         -1.56586       -0.73857        0.07125
C         -1.12955       -1.31212       -1.24779
O         -0.80466       -1.27450        1.11932
B          0.28821       -0.29161        1.17773
O         -0.45942        0.98725        1.17527
C         -1.37996        0.75366        0.15000
C         -2.65766        1.49753        0.40899
C         -0.77038        1.33409       -1.10519
H         -3.27061       -2.04393       -0.38352
H         -3.13483       -1.63381        1.33008
H         -3.74263       -0.42938        0.17549
H         -0.26902       -0.82493       -1.71270
H         -1.96101       -1.27841       -1.99396
H         -0.87451       -2.38072       -1.05687
H         -3.30721        1.45365       -0.48658
H         -2.36982        2.56918        0.52476
H         -3.17133        1.15317        1.33188
H         -0.78545        2.44291       -0.97046
H          0.29470        1.07952       -1.24558
H         -1.37627        1.12236       -2.00588
O          1.52501       -0.51495        0.45738
C          2.68338        0.18425        0.52720
C          3.69900       -0.14006       -0.38244
C          4.93086        0.51788       -0.33674
C          5.16005        1.50525        0.62394
C          4.15534        1.83895        1.53665
C          2.91873        1.18546        1.49168
H          2.16106        1.45210        2.21620
H          6.11741        2.00858        0.66297
H          4.33767        2.60004        2.28397
H          3.53399       -0.91125       -1.12490
H          5.70921        0.25677       -1.04235
