54
	Energy:     303.6512281
C         -2.76662        0.91927       -1.60635
C         -1.80277        1.10833       -0.54278
C         -0.66701        1.98060       -1.06867
C         -2.46205        1.97743        0.53674
C         -3.60160        1.14519        1.04374
C         -3.04912       -0.06697        1.73758
C         -2.02085       -0.81430        0.95169
C         -1.11678       -1.43745        2.02712
C         -2.62912       -2.01875        0.35665
N         -1.17735        0.00996        0.13383
C         -0.28718       -0.73490       -0.62706
C         -0.78669       -1.41414       -1.74445
C          0.02404       -2.17683       -2.55815
C          1.35884       -2.24584       -2.22613
C          1.85300       -1.58740       -1.13965
C          1.05025       -0.80427       -0.29461
B          1.72863       -0.12142        0.88671
H         -3.56981        0.18841       -1.50720
H         -2.25423        0.90387       -2.61499
H         -3.34270        1.89389       -1.70231
H          0.11549        1.32139       -1.48169
H         -1.05669        2.60474       -1.89807
H         -0.29314        2.66873       -0.28150
H         -1.69060        2.18306        1.27890
H         -2.78589        2.89402        0.01473
H         -4.30502        0.94833        0.23678
H         -4.12373        1.76345        1.81800
H         -2.70700        0.26545        2.74074
H         -3.92153       -0.73338        1.95978
H         -0.39401       -2.13232        1.55433
H         -1.79799       -2.10875        2.62319
H         -0.65183       -0.66856        2.67612
H         -3.10925       -2.56285        1.22788
H         -3.45776       -1.90785       -0.34632
H         -1.91511       -2.77700       -0.04103
H         -0.66435        0.55362        0.87040
H         -1.83305       -1.37256       -2.02009
H         -0.33361       -2.70669       -3.41956
H          2.00079       -2.84095       -2.85804
H          2.91149       -1.68383       -0.93510
H          2.81636       -0.25216        1.05226
H          1.13417        0.50583        1.58012
O          1.97293        1.16999        0.21549
C          3.09042        1.83154       -0.21295
C          4.37361        1.24153       -0.30156
C          5.46351        1.98997       -0.75837
C          5.29370        3.32399       -1.13265
C          4.03138        3.91374       -1.05481
C          2.93828        3.17101       -0.60026
H          4.55805        0.21153       -0.03558
H          6.44256        1.53296       -0.82459
H          6.13962        3.89948       -1.48576
H          3.89877        4.94733       -1.34737
H          1.96590        3.64283       -0.54606
