52
	Energy:     268.0845362
C         -2.95284        0.08763       -2.35042
C         -1.63895        0.51020       -1.72785
C         -0.57834        0.28025       -2.78312
C         -1.67754        1.97187       -1.43938
C         -2.08396        2.36014       -0.06588
C         -2.76721        1.29101        0.71431
C         -2.02392       -0.02291        0.71106
C         -1.11985       -0.04948        1.92576
C         -3.08617       -1.09145        0.95864
N         -1.33540       -0.23962       -0.53219
C         -0.31611       -1.22905       -0.59232
C         -0.72400       -2.51028       -0.93770
C          0.16535       -3.56024       -1.03139
C          1.49182       -3.28857       -0.76628
C          1.89671       -2.01722       -0.42354
C          1.01271       -0.96592       -0.32873
B          1.44624        0.47916        0.05653
H         -2.95717        0.28202       -3.45472
H         -3.81077        0.66018       -1.94258
H         -3.15311       -0.99797       -2.26354
H         -0.03712       -0.66716       -2.53863
H          0.12342        1.15399       -2.83269
H         -1.02246        0.12013       -3.80775
H         -0.64943        2.40505       -1.60688
H         -2.29674        2.47365       -2.23979
H         -1.26488        2.79498        0.56073
H         -2.82833        3.20017       -0.17099
H         -3.84336        1.14036        0.40845
H         -2.84048        1.64364        1.76392
H         -0.42448       -0.89488        1.95646
H         -1.79882       -0.22194        2.81277
H         -0.67132        0.94361        2.12898
H         -3.59081       -1.43225        0.05538
H         -3.86335       -0.72414        1.66110
H         -2.64331       -2.00431        1.44369
H         -1.78250       -2.72846       -1.14955
H         -0.18099       -4.55874       -1.30496
H          2.19428       -4.10782       -0.83805
H          2.94753       -1.85512       -0.22523
H          1.36137        1.30672       -0.78281
O          2.73599        0.55746        0.71687
C          6.22129        1.65832        0.61802
C          6.38836        1.96162       -0.73493
C          5.32158        1.80487       -1.62150
C          4.08495        1.34606       -1.15817
H          7.34552        2.31348       -1.09776
H          5.45394        2.03308       -2.67147
C          3.90411        1.03838        0.21058
C          4.98668        1.19735        1.08683
H          7.05052        1.77579        1.30341
H          3.28929        1.22296       -1.87894
H          4.87201        0.95831        2.13653
