
                                 *****************
                                 * O   R   C   A *
                                 *****************

                                            #,                                       
                                            ###                                      
                                            ####                                     
                                            #####                                    
                                            ######                                   
                                           ########,                                 
                                     ,,################,,,,,                         
                               ,,#################################,,                 
                          ,,##########################################,,             
                       ,#########################################, ''#####,          
                    ,#############################################,,   '####,        
                  ,##################################################,,,,####,       
                ,###########''''           ''''###############################       
              ,#####''   ,,,,##########,,,,          '''####'''          '####       
            ,##' ,,,,###########################,,,                        '##       
           ' ,,###''''                  '''############,,,                           
         ,,##''                                '''############,,,,        ,,,,,,###''
      ,#''                                            '''#######################'''  
     '                                                          ''''####''''         
             ,#######,   #######,   ,#######,      ##                                
            ,#'     '#,  ##    ##  ,#'     '#,    #''#        ,####,    ,#,          
            ##       ##  ##   ,#'  ##            #'  '#       #'       ,# #          
            ##       ##  #######   ##           ,######,      #####,      #          
            '#,     ,#'  ##    ##  '#,     ,#' ,#      #,     #,   #      #          
             '#######'   ##     ##  '#######'  #'      '#     '####' #    #          



                #########################################################
                #                        -***-                          #
                #          Department of theory and spectroscopy        #
                #                                                       #
                #                      Frank Neese                      #
                #                                                       #
                #     Directorship, Architecture, Infrastructure        #
                #                    SHARK, DRIVERS                     #
                #        Core code/Algorithms in most modules           #
                #                                                       #
                #        Max Planck Institute fuer Kohlenforschung      #
                #                Kaiser Wilhelm Platz 1                 #
                #                 D-45470 Muelheim/Ruhr                 #
                #                      Germany                          #
                #                                                       #
                #                  All rights reserved                  #
                #                        -***-                          #
                #########################################################


                         Program Version 6.1.0  -  RELEASE   -
                                (GIT: $679e74b$)
                          ($2025-06-10 18:02:51 +0200$)


 With contributions from (in alphabetic order):
[Max-Planck-Institut fuer Kohlenforschung]                               
  Daniel Aravena         : Magnetic Suceptibility                        
  Michael Atanasov       : Ab Initio Ligand Field Theory (pilot matlab implementation)
  Alexander A. Auer      : GIAO ZORA, VPT2 properties, NMR spectrum      
  Ute Becker             : All parallelization in ORCA, NUMFREQ, NUMCALC 
  Giovanni Bistoni       : ED, misc. LED, open-shell LED, HFLD           
  Dmytro Bykov           : pre 5.0 version of the SCF Hessian            
  Marcos Casanova-Páez   : Triplet and SCS-CIS(D). UHF-(DLPNO)-IP/EA/STEOM-CCSD. UHF-CVS-IP/STEOM-CCSD   
  Vijay G. Chilkuri      : MRCI spin determinant printing, contributions to CSF-ICE 
  Pauline Colinet        : FMM embedding                                 
  Dipayan Datta          : RHF DLPNO-CCSD density                        
  Achintya Kumar Dutta   : EOM-CC, STEOM-CC                              
  Nicolas Foglia         : Exact transition moments, OPA infrastructure, MCD improvements    
  Dmitry Ganyushin       : Spin-Orbit,Spin-Spin,Magnetic field MRCI      
  Miquel Garcia-Rates    : C-PCM and meta-GGA Hessian, CCSD/C-PCM, Gaussian charge scheme 
  Tiago L. C. Gouveia    : GS-ROHF, GS-ROCIS                             
  Yang Guo               : DLPNO-NEVPT2, F12-NEVPT2, CIM, IAO-localization        
  Andreas Hansen         : Spin unrestricted coupled pair/coupled cluster methods 
  Ingolf Harden          : AUTO-CI MPn and infrastructure                
  Benjamin Helmich-Paris : MC-RPA, TRAH-(SCF,CASSCF), AVAS, COSX integrals, SCF dyn. polar., MC-PDFT, srDFT 
  Lee Huntington         : MR-EOM, pCC                                   
  Robert Izsak           : Overlap fitted RIJCOSX, COSX-SCS-MP3, EOM     
  Riya Kayal             : Wick's Theorem for AUTO-CI, AUTO-CI UHF-CCSDT 
  Emily Kempfer          : AUTO-CI RHF CISDT and CCSDT, approximate NEVPT4
  Christian Kollmar      : KDIIS, OOCD, Brueckner-CCSD(T), CCSD density, CASPT2, CASPT2-K, improved NEVPT2 
  Axel Koslowski         : Symmetry handling                             
  Simone Kossmann        : meta-GGA functionals, TD-DFT gradient, OOMP2, (MP2 Hessian; deprecated post 5.0) 
  Lucas Lang             : DCDCAS, Hyperfine gauge corrections, ICE-SOC+SSC
  Marvin Lechner         : AUTO-CI (C++ implementation), FIC-MRCC        
  Spencer Leger          : CASSCF response                               
  Dagmar Lenk            : GEPOL surface, SMD, ORCA-2-JSON               
  Dimitrios Liakos       : Extrapolation schemes; Compound Job, Property file
  Dimitrios Manganas     : Further ROCIS development; embedding schemes. LFT, Crystal Embedding 
  Dimitrios Pantazis     : SARC Basis sets                               
  Anastasios Papadopoulos: AUTO-CI, single reference methods and gradients 
  Taras Petrenko         : pre 6.0 DFT Hessian and TD-DFT gradient,  ECA, NRVS 
  Petra Pikulova         : Analytic Raman intensities                    
  Peter Pinski           : DLPNO-MP2, DLPNO-MP2 Gradient                 
  Shashank Vittal Rao    : ES-AILFT, MagRelax                            
  Christoph Reimann      : Effective Core Potentials                     
  Marius Retegan         : Local ZFS, SOC                                
  Christoph Riplinger    : Optimizer, TS searches, QM/MM, DLPNO-CCSD(T), (RO)-DLPNO pert. Triples 
  Michael Roemelt        : Original ROCIS implementation, recursive CI coupling coefficients
  Masaaki Saitow         : Open-shell DLPNO-CCSD energy and density      
  Barbara Sandhoefer     : DKH picture change effects                    
  Yorick L. A. Schmerwitz: GMF and freeze-and-release deltaSCF, NEB S-IDPP initial path                    
  Kantharuban Sivalingam : CASSCF convergence/infrastructure, NEVPT2, NEVPT3, NEVPT4(SD), FIC-MRCI and CEPA variants
  Bernardo de Souza      : ESD, SOC TD-DFT                               
  Georgi L. Stoychev     : AutoAux, RI-MP2 NMR, DLPNO-MP2 response, X2C  
  Van Anh Tran           : RI-MP2 g-tensors                              
  Willem Van den Heuvel  : Paramagnetic NMR                              
  Zikuan Wang            : NOTCH, Electric field optimization            
  Frank Wennmohs         : Technical directorship and infrastructure     
  Hang Xu                : AUTO-CI-Response properties                   
                                                                         
[FACCTs GmbH]                                                            
  Markus Bursch, Nicolas Foglia, Miquel Garcia-Rates, Ingolf Harden, Hagen Neugebauer, Anastasios Papadopoulos, 
  Christoph Riplinger, Bernardo de Souza, Georgi L. Stoychev                                                    
                                                                 
  APM, various basis sets, CI-OPT, improved COSX, DLPNO-Multilevel,           
  DOCKER, DRACO, updates on ESD, Fragmentator, GOAT, IRC, LR-CPCM, L-BFGS, MBIS, meta-GGA TD-DFT gradient, ML-optimized integration grids, 
  MM, NACMEs, nearIR, NEB, NEB-TS, NL-DFT gradient (VV10), 2- and 3-layer-ONIOM, interface openCOSMO-RS, QMMM,   
  Crystal-QMMM, RESP, rigid body optimization, SF, symmetry and pop. for TD-DFT, various functionals, SOLVATOR                                   
                                                                         
[Other institutions]                                                     
  V. Asgeirsson          : NEB                                           
  Christoph Bannwarth    : sTDA-DFT, sTD-DFT, PBEh-3c, B97-3c, D3        
  Giovanni Bistoni       : ETS/NOCV, ADLD/ADEX, COVALED                  
  Martin Brehm           : Molecular dynamics                            
  Ronald Cardenas        : ETS/NOCV                                      
  Martina Colucci        : COVALED                                       
  Sebastian Ehlert       : rSCAN, r2SCAN, r2SCAN-3c, D4, dhf basis sets  
  Marvin Friede          : D4 for Fr, Ra, Ac-Lr                          
  Lars Goerigk           : TD-DFT with DH, B97 family of functionals     
  Stefan Grimme          : VdW corrections, initial TS optimization, DFT functionals, gCP, sTDA/sTD-DF 
  Waldemar Hujo          : DFT-NL                                        
  H. Jonsson             : NEB                                           
  Holger Kruse           : gCP                                           
  Marcel Mueller         : wB97X-3c, vDZP basis set                      
  Hagen Neugebauer       : wr2SCAN, Native XTB                           
  Gianluca Regni         : ADLD/ADEX                                     
  Tobias Risthaus        : pre 6.0 range-separated hybrid DFT and stability analysis
  Lukas Wittmann         : regularized MP2, r2SCAN double-hybrids, wr2SCAN        
                                                                         
We gratefully acknowledge several colleagues who have allowed us to      
interface, adapt or use parts of their codes:                            
  Ed Valeev, F. Pavosevic, A. Kumar             : LibInt (2-el integral package), F12 methods 
  Garnet Chan, S. Sharma, J. Yang, R. Olivares  : DMRG                   
  Ulf Ekstrom                                   : XCFun DFT Library      
  Mihaly Kallay                                 : mrcc  (arbitrary order and MRCC methods)
  Frank Weinhold                                : gennbo (NPA and NBO analysis)           
  Simon Mueller                                 : openCOSMO-RS                            
  Christopher J. Cramer and Donald G. Truhlar   : smd solvation model                     
  S Lehtola, MJT Oliveira, MAL Marques          : LibXC Library                           
  Liviu Ungur et al                             : ANISO software                          


 Your calculation uses the libint2 library for the computation of 2-el integrals
 For citations please refer to: http://libint.valeyev.net

 Your ORCA version has been built with support for libXC version: 7.0.0
 For citations please refer to: https://libxc.gitlab.io

 This ORCA versions uses:
   CBLAS   interface :  Fast vector & matrix operations
   LAPACKE interface :  Fast linear algebra routines
   SCALAPACK package :  Parallel linear algebra routines
   Shared memory     :  Shared parallel matrices
   BLAS/LAPACK       :  OpenBLAS 0.3.29  USE64BITINT DYNAMIC_ARCH NO_AFFINITY Zen SINGLE_THREADED
        Core in use  :  Zen
   Copyright (c) 2011-2014, The OpenBLAS Project


  ***********************************
  * Starting time: Tue Jul 29 08:59:45 2025
  * Host name:     node067.cluster
  * Process ID:    2389928
  * Working dir.:  /scratch/53216235/_e0ifd0
  ***********************************

NOTE: MaxCore=4096 MB was set to SCF,MP2,MDCI,CIPSI,MRCI,RASCI and CIS
      => If you want to overwrite this, your respective input block should be placed after the MaxCore statement
Your calculation utilizes the atom-pairwise dispersion correction
with the zero-damping scheme (D30)


XCFun DFT library Copyright 2009-2010 Ulf Ekstrom and contributors.
See http://admol.org/xcfun for more information.
This is free software; see the source code for copying conditions.
There is ABSOLUTELY NO WARRANTY; not even for MERCHANTABILITY or FITNESS FOR A PARTICULAR PURPOSE.
For details see the documentation.
Scientific users of this library should cite U. Ekstrom, L. Visscher, R. Bast, A. J. Thorvaldsen and K. Ruud;
J.Chem.Theor.Comp. 2010, DOI: 10.1021/ct100117s
XCFun Version 0.99 

Warning: RI is on but no J-basis has been assigned. Assigning Def2/J (nothing to worry about!)
================================================================================

----- Orbital basis set information -----
Your calculation utilizes the basis: 6-31G**
   H-He, Li-Ne : W. J. Hehre, R. Ditchfield and J.A. Pople, J. Chem. Phys. 56, 2257 (1972).
                 Note: He and Ne are unpublished basis sets taken from the Gaussian program.
                 Note: Li and B from J. D. Dill and J. A. Pople, J. Chem. Phys. 62, 2921 (1975).
   Na - Ar     : M. M. Francl, W. J. Pietro, W. J. Hehre, J. S. Binkley, M. S. Gordon, 
                 D. J. DeFrees and J. A. Pople, J. Chem. Phys. 77, 3654 (1982).
   K - Zn      : V. A. Rassolov, J. A. Pople, M. A. Ratner, and T. L. Windus, J. Chem. Phys. 109, 1223 (1998).

----- AuxJ basis set information -----
Your calculation utilizes the auxiliary basis: def2/J
   H-Rn: F. Weigend, Phys. Chem. Chem. Phys. 8, 1057 (2006).
   Fr-Lr: K. Eichkorn, F. Weigend, O. Treutler, R. Ahlrichs; Theor. Chem. Acc. 97, 119 (1997).

================================================================================
                                        WARNINGS
                       Please study these warnings very carefully!
================================================================================


WARNING: Geometry Optimization
  ===> : Switching off AutoStart
         For restart on a previous wavefunction, please use MOREAD

================================================================================
                                       INPUT FILE
================================================================================
NAME = input.inp
|  1> # Automatically generated ORCA input
|  2> 
|  3> # Number of cores
|  4> %pal nprocs 20 end
|  5> # RAM per core
|  6> %maxcore 4096
|  7> 
|  8> ! wB97X-D3 
|  9> ! 6-31G** 
| 10> ! Opt 
| 11> ! NoSym 
| 12> 
| 13> %geom
| 14>     Constraints
| 15>         {B 10 11 C}
| 16>         {B 11 20 C}
| 17>         {B 10 20 C}
| 18>         {B 10 12 C}
| 19>         {B 12 20 C}
| 20>         {B 11 12 C}
| 21>         {A 10 11 20 C}
| 22>         {A 10 12 20 C}
| 23>     end
| 24> end
| 25> %Output
| 26>   JSONPropFile True
| 27> End
| 28> 
| 29> 
| 30> *xyz 0 1 
| 31> C        -2.05648000     -2.08167000      0.88775000
| 32> C        -0.71542000     -1.70910000      0.93465000
| 33> C        -0.28417000     -0.42133000      0.59502000
| 34> C        -1.26942000      0.52424000      0.22842000
| 35> C        -2.61511000      0.14482000      0.17402000
| 36> C        -3.00707000     -1.15097000      0.49263000
| 37> H        -2.34916000     -3.09576000      1.14203000
| 38> H         0.02192000     -2.45472000      1.21885000
| 39> H        -3.36878000      0.87022000     -0.11327000
| 40> H        -4.05730000     -1.42268000      0.44034000
| 41> B         1.26450000     -0.02546000      0.55324000
| 42> H         1.77671000     -1.14041000     -0.06933000
| 43> C         1.99846000      0.25456000      1.96532000
| 44> C         1.62154000     -0.15576000      3.22695000
| 45> C         2.29477000      0.51051000      4.28187000
| 46> H         0.87672000     -0.92962000      3.37197000
| 47> C         3.18118000      1.44486000      3.81584000
| 48> H         2.12660000      0.31592000      5.33382000
| 49> H         3.81495000      2.09868000      4.39930000
| 50> H         1.62131000      0.73753000     -0.30016000
| 51> B         2.59844000     -1.50111000      0.82102000
| 52> O         3.91459000     -1.36673000      0.48573000
| 53> O         2.30659000     -2.62546000      1.54984000
| 54> C         4.63314000     -2.30159000      1.32579000
| 55> C         3.53597000     -3.38385000      1.63830000
| 56> C         5.83075000     -2.82008000      0.54378000
| 57> H         6.53511000     -2.00357000      0.36766000
| 58> H         6.34785000     -3.60057000      1.11085000
| 59> H         5.53380000     -3.22754000     -0.42357000
| 60> C         5.10362000     -1.54319000      2.56676000
| 61> H         5.69863000     -0.68425000      2.24865000
| 62> H         4.26368000     -1.17124000      3.15863000
| 63> H         5.72436000     -2.18025000      3.20292000
| 64> C         3.62860000     -3.99703000      3.02758000
| 65> H         2.83537000     -4.73763000      3.15694000
| 66> H         4.59101000     -4.50098000      3.16019000
| 67> H         3.51802000     -3.23896000      3.80436000
| 68> C         3.44580000     -4.47859000      0.57560000
| 69> H         4.30831000     -5.14956000      0.61422000
| 70> H         2.54119000     -5.06516000      0.75236000
| 71> H         3.38027000     -4.04842000     -0.42733000
| 72> N        -1.02465000      1.92826000     -0.09427000
| 73> C        -1.31667000      2.41937000     -1.49087000
| 74> C        -0.97285000      2.94081000      1.01483000
| 75> S         3.19525000      1.51044000      2.10425000
| 76> C         0.00008000      4.08196000      0.59876000
| 77> C        -0.43110000      2.37079000      2.34036000
| 78> C        -2.36944000      3.48648000      1.42288000
| 79> C        -0.31989000      4.66000000     -0.77989000
| 80> H         1.03103000      3.66503000      0.52805000
| 81> H         0.01951000      4.89217000      1.36019000
| 82> C        -0.29370000      3.53243000     -1.82629000
| 83> H         0.44637000      5.41993000     -1.04484000
| 84> H        -1.29481000      5.18435000     -0.75772000
| 85> H         0.72897000      3.09636000     -1.83943000
| 86> H        -0.49236000      3.95795000     -2.83572000
| 87> C        -2.75396000      2.99648000     -1.75358000
| 88> C        -1.14422000      1.28077000     -2.52728000
| 89> H        -1.28143000      1.66635000     -3.56201000
| 90> H        -1.90569000      0.48481000     -2.38384000
| 91> H        -0.13507000      0.82852000     -2.45510000
| 92> H        -2.85199000      3.26882000     -2.82604000
| 93> H        -3.00075000      3.94409000     -1.27057000
| 94> H        -3.58007000      2.29266000     -1.57083000
| 95> H         0.61447000      2.14927000      2.22082000
| 96> H        -0.99874000      1.48536000      2.69614000
| 97> H        -0.43948000      3.13130000      3.15189000
| 98> H        -2.87560000      4.12301000      0.70240000
| 99> H        -2.27551000      4.16122000      2.30346000
|100> H        -3.04434000      2.65355000      1.71305000
|101> *
|102> 
|103> 
|104>                          ****END OF INPUT****
================================================================================

                       *****************************
                       * Geometry Optimization Run *
                       *****************************

Geometry optimization settings:
Update method            Update   .... BFGS
Choice of coordinates    CoordSys .... (2022) Redundant Internals
Initial Hessian          InHess   .... Almloef's Model
Max. no of cycles        MaxIter  .... 210

Convergence Tolerances:
Energy Change            TolE     ....  5.0000e-06 Eh
Max. Gradient            TolMAXG  ....  3.0000e-04 Eh/bohr
RMS Gradient             TolRMSG  ....  1.0000e-04 Eh/bohr
Max. Displacement        TolMAXD  ....  4.0000e-03 bohr
RMS Displacement         TolRMSD  ....  2.0000e-03 bohr
Strict Convergence                .... False

------------------------------------------------------------------------------
                        ORCA OPTIMIZATION COORDINATE SETUP
------------------------------------------------------------------------------

The optimization will be done in redundant internal coordinates (2022)
Making redundant internal coordinates   ...  (2022 redundants) done
Evaluating the initial hessian          ...  (Almloef) done
Evaluating the coordinates              ...  done
Calculating the B-matrix                .... done
Calculating the G-matrix                .... done
The number of degrees of freedom        ....  388
Storing new coordinates                 .... done

    -----------------------------------------------------------------
                    Redundant Internal Coordinates


    -----------------------------------------------------------------
         Definition                    Initial Value    Approx d2E/dq
    -----------------------------------------------------------------
      1. B(C   1,C   0)                  1.3926         0.618763   
      2. B(C   2,C   1)                  1.3999         0.602516   
      3. B(C   3,C   2)                  1.4139         0.572203   
      4. B(C   4,C   3)                  1.3992         0.604001   
      5. B(C   5,C   0)                  1.3878         0.629904   
      6. B(C   5,C   4)                  1.3908         0.623052   
      7. B(H   6,C   0)                  1.0857         0.365862   
      8. B(H   7,C   1)                  1.0865         0.364817   
      9. B(H   8,C   4)                  1.0848         0.367065   
     10. B(H   9,C   5)                  1.0861         0.365339   
     11. B(B  10,C   2)                  1.5990         0.335808   
     12. B(H  11,B  10)                  1.3759         0.145924 C 
     13. B(C  12,H  11)                  2.4769         0.010000 C 
     14. B(C  12,B  10)                  1.6159         0.315627 C 
     15. B(C  13,C  12)                  1.3792         0.650128   
     16. B(C  14,C  13)                  1.4177         0.564245   
     17. B(H  15,C  13)                  1.0838         0.368381   
     18. B(C  16,C  14)                  1.3696         0.673318   
     19. B(H  17,C  14)                  1.0829         0.369570   
     20. B(H  18,C  16)                  1.0815         0.371567   
     21. B(H  19,B  10)                  1.1991         0.279404   
     22. B(B  20,B  10)                  2.0071         0.086847 C 
     23. B(B  20,H  11)                  1.2641         0.219989 C 
     24. B(B  20,C  12)                  2.1799         0.039755 C 
     25. B(O  21,B  20)                  1.3648         0.710999   
     26. B(O  22,B  20)                  1.3713         0.694218   
     27. B(C  23,O  21)                  1.4477         0.452627   
     28. B(C  24,O  22)                  1.4472         0.453559   
     29. B(C  24,C  23)                  1.5725         0.319583   
     30. B(C  25,C  23)                  1.5214         0.385573   
     31. B(H  26,C  25)                  1.0926         0.356644   
     32. B(H  27,C  25)                  1.0946         0.354080   
     33. B(H  28,C  25)                  1.0909         0.358968   
     34. B(C  29,C  23)                  1.5286         0.375541   
     35. B(H  30,C  29)                  1.0922         0.357137   
     36. B(H  31,C  29)                  1.0928         0.356448   
     37. B(H  32,C  29)                  1.0936         0.355427   
     38. B(C  33,C  24)                  1.5214         0.385560   
     39. B(H  34,C  33)                  1.0929         0.356281   
     40. B(H  35,C  33)                  1.0944         0.354283   
     41. B(H  36,C  33)                  1.0910         0.358777   
     42. B(C  37,C  24)                  1.5284         0.375817   
     43. B(H  38,C  37)                  1.0934         0.355575   
     44. B(H  39,C  37)                  1.0925         0.356765   
     45. B(H  40,C  37)                  1.0933         0.355818   
     46. B(N  41,C   3)                  1.4613         0.430692   
     47. B(C  42,N  41)                  1.5090         0.361480   
     48. B(C  43,N  41)                  1.5027         0.369916   
     49. B(S  44,C  12)                  1.7404         0.465087   
     50. B(S  44,C  16)                  1.7129         0.514439   
     51. B(C  45,C  43)                  1.5563         0.339226   
     52. B(C  46,C  43)                  1.5412         0.358453   
     53. B(C  47,C  43)                  1.5539         0.342126   
     54. B(C  48,C  45)                  1.5288         0.375244   
     55. B(H  49,C  45)                  1.1143         0.329334   
     56. B(H  50,C  45)                  1.1120         0.332115   
     57. B(C  51,C  42)                  1.5485         0.349019   
     58. B(C  51,C  48)                  1.5385         0.362059   
     59. B(H  52,C  48)                  1.1112         0.333075   
     60. B(H  53,C  48)                  1.1072         0.338044   
     61. B(H  54,C  51)                  1.1118         0.332340   
     62. B(H  55,C  51)                  1.1133         0.330535   
     63. B(C  56,C  42)                  1.5709         0.321402   
     64. B(C  57,C  42)                  1.5493         0.348020   
     65. B(H  58,C  57)                  1.1127         0.331254   
     66. B(H  59,C  57)                  1.1108         0.333561   
     67. B(H  60,C  57)                  1.1082         0.336802   
     68. B(H  61,C  56)                  1.1108         0.333569   
     69. B(H  62,C  56)                  1.0919         0.357642   
     70. B(H  63,C  56)                  1.1006         0.346406   
     71. B(H  64,C  46)                  1.0754         0.379881   
     72. B(H  65,C  46)                  1.1103         0.334214   
     73. B(H  66,C  46)                  1.1122         0.331877   
     74. B(H  67,C  47)                  1.0865         0.364774   
     75. B(H  68,C  47)                  1.1133         0.330515   
     76. B(H  69,C  47)                  1.1106         0.333839   
     77. A(C   1,C   0,C   5)          119.3257         0.435150   
     78. A(C   1,C   0,H   6)          120.1057         0.353739   
     79. A(C   5,C   0,H   6)          120.5602         0.354811   
     80. A(C   0,C   1,H   7)          118.6029         0.353568   
     81. A(C   2,C   1,H   7)          119.0594         0.351979   
     82. A(C   0,C   1,C   2)          122.3156         0.431684   
     83. A(C   1,C   2,C   3)          117.6089         0.425670   
     84. A(C   1,C   2,B  10)          122.1709         0.390643   
     85. A(C   3,C   2,B  10)          120.1680         0.387140   
     86. A(C   2,C   3,C   4)          119.9270         0.425858   
     87. A(C   2,C   3,N  41)          125.6678         0.398468   
     88. A(C   4,C   3,N  41)          114.3968         0.402279   
     89. A(C   3,C   4,H   8)          119.8119         0.352492   
     90. A(C   3,C   4,C   5)          120.9836         0.432412   
     91. A(C   5,C   4,H   8)          119.2030         0.354350   
     92. A(C   0,C   5,H   9)          120.5504         0.354725   
     93. A(C   0,C   5,C   4)          119.8031         0.435691   
     94. A(C   4,C   5,H   9)          119.6431         0.354068   
     95. A(H  11,B  10,H  19)           94.7506         0.249111   
     96. A(H  19,B  10,B  20)          111.4081         0.254621   
     97. A(C   2,B  10,H  19)          117.6673         0.311583   
     98. A(H  11,B  10,C  12)          111.5153         0.278473   
     99. A(C  12,B  10,B  20)           73.0791         0.284993   
    100. A(H  11,B  10,B  20)           38.4812         0.231976   
    101. A(C   2,B  10,H  11)           99.8901         0.281150   
    102. A(C   2,B  10,B  20)          117.2692         0.287762   
    103. A(C   2,B  10,C  12)          117.3861         0.352401   
    104. A(C  12,B  10,H  19)          112.1185         0.308482   
    105. A(B  10,H  11,B  20)           98.8888         0.240677 C 
    106. A(C  13,C  12,S  44)          109.2445         0.438762   
    107. A(B  10,C  12,C  13)          128.5870         0.391606   
    108. A(B  10,C  12,S  44)          120.4750         0.389206   
    109. A(B  10,C  12,B  20)           61.7521         0.251506 C 
    110. A(C  12,C  13,C  14)          114.2721         0.430432   
    111. A(C  14,C  13,H  15)          124.2166         0.348673   
    112. A(C  12,C  13,H  15)          121.5096         0.357135   
    113. A(C  13,C  14,H  17)          124.3750         0.348862   
    114. A(C  13,C  14,C  16)          112.0079         0.433151   
    115. A(C  16,C  14,H  17)          123.6147         0.359468   
    116. A(C  14,C  16,H  18)          127.4540         0.359798   
    117. A(C  14,C  16,S  44)          111.8038         0.449688   
    118. A(H  18,C  16,S  44)          120.7394         0.361681   
    119. A(B  10,B  20,H  11)           42.6300         0.245897   
    120. A(B  10,B  20,O  21)          122.3936         0.322653   
    121. A(H  11,B  20,O  21)          115.1968         0.336873   
    122. A(B  10,B  20,O  22)          122.1579         0.321394   
    123. A(H  11,B  20,O  22)          118.0293         0.335537   
    124. A(O  21,B  20,O  22)          114.6156         0.456147   
    125. A(B  20,O  21,C  23)          105.8129         0.418630   
    126. A(B  20,O  22,C  24)          106.3413         0.417006   
    127. A(O  21,C  23,C  24)          102.3242         0.363311   
    128. A(O  21,C  23,C  25)          108.2103         0.375216   
    129. A(C  24,C  23,C  25)          114.6349         0.355729   
    130. A(O  21,C  23,C  29)          107.6656         0.373514   
    131. A(C  24,C  23,C  29)          113.2587         0.354142   
    132. A(C  25,C  23,C  29)          110.1268         0.365650   
    133. A(C  23,C  24,C  33)          114.6065         0.355727   
    134. A(C  23,C  24,C  37)          113.3256         0.354186   
    135. A(C  33,C  24,C  37)          110.4774         0.365694   
    136. A(O  22,C  24,C  23)          102.7030         0.363439   
    137. A(O  22,C  24,C  37)          106.4239         0.373694   
    138. A(O  22,C  24,C  33)          108.5871         0.375348   
    139. A(H  26,C  25,H  28)          108.1602         0.290256   
    140. A(H  27,C  25,H  28)          108.7641         0.289927   
    141. A(C  23,C  25,H  26)          109.6109         0.325492   
    142. A(C  23,C  25,H  27)          110.4010         0.325106   
    143. A(H  26,C  25,H  27)          108.1688         0.289632   
    144. A(C  23,C  25,H  28)          111.6432         0.325840   
    145. A(H  30,C  29,H  31)          107.9865         0.289998   
    146. A(C  23,C  29,H  30)          108.7473         0.324158   
    147. A(C  23,C  29,H  31)          111.8398         0.324056   
    148. A(C  23,C  29,H  32)          110.9749         0.323903   
    149. A(H  30,C  29,H  32)          108.5617         0.289868   
    150. A(H  31,C  29,H  32)          108.6332         0.289780   
    151. A(C  24,C  33,H  34)          109.6948         0.325436   
    152. A(C  24,C  33,H  35)          110.4732         0.325135   
    153. A(H  34,C  33,H  36)          108.2411         0.290185   
    154. A(C  24,C  33,H  36)          111.3424         0.325809   
    155. A(H  34,C  33,H  35)          108.1721         0.289612   
    156. A(H  35,C  33,H  36)          108.8329         0.289929   
    157. A(C  24,C  37,H  38)          111.6192         0.323964   
    158. A(C  24,C  37,H  39)          108.7185         0.324142   
    159. A(H  38,C  37,H  39)          108.5394         0.289839   
    160. A(C  24,C  37,H  40)          111.0735         0.324001   
    161. A(H  38,C  37,H  40)          108.7314         0.289718   
    162. A(H  39,C  37,H  40)          108.0620         0.289870   
    163. A(C   3,N  41,C  42)          118.9915         0.365618   
    164. A(C   3,N  41,C  43)          119.3547         0.367066   
    165. A(C  42,N  41,C  43)          118.0660         0.356256   
    166. A(C  56,C  42,C  57)          105.0672         0.349949   
    167. A(N  41,C  42,C  51)          107.8530         0.354950   
    168. A(N  41,C  42,C  56)          116.8336         0.350034   
    169. A(C  51,C  42,C  56)          107.7057         0.350118   
    170. A(N  41,C  42,C  57)          111.0031         0.354778   
    171. A(C  51,C  42,C  57)          108.0484         0.354864   
    172. A(N  41,C  43,C  45)          108.5613         0.354626   
    173. A(N  41,C  43,C  46)          113.4334         0.357961   
    174. A(C  45,C  43,C  46)          106.3425         0.354928   
    175. A(N  41,C  43,C  47)          113.5438         0.355138   
    176. A(C  45,C  43,C  47)          111.9987         0.352137   
    177. A(C  46,C  43,C  47)          102.7056         0.355441   
    178. A(C  12,S  44,C  16)           92.6647         0.444000   
    179. A(C  43,C  45,C  48)          112.7991         0.357698   
    180. A(C  43,C  45,H  49)          108.7241         0.314630   
    181. A(C  48,C  45,H  49)          106.1341         0.319843   
    182. A(C  43,C  45,H  50)          111.2299         0.315060   
    183. A(C  48,C  45,H  50)          110.2218         0.320282   
    184. A(H  49,C  45,H  50)          107.4512         0.283211   
    185. A(C  43,C  46,H  64)          108.8033         0.324967   
    186. A(C  43,C  46,H  65)          113.0054         0.318225   
    187. A(H  64,C  46,H  65)          111.6170         0.289877   
    188. A(H  65,C  46,H  66)          107.9166         0.283828   
    189. A(H  64,C  46,H  66)          103.2543         0.289558   
    190. A(C  43,C  46,H  66)          111.8382         0.317861   
    191. A(C  43,C  47,H  67)          116.7623         0.320356   
    192. A(C  43,C  47,H  68)          110.1626         0.315248   
    193. A(H  67,C  47,H  68)          102.0482         0.287539   
    194. A(C  43,C  47,H  69)          110.5731         0.315761   
    195. A(H  67,C  47,H  69)          109.2405         0.287989   
    196. A(H  68,C  47,H  69)          107.4062         0.283597   
    197. A(C  45,C  48,C  51)          109.4308         0.361689   
    198. A(C  45,C  48,H  52)          109.2239         0.320434   
    199. A(C  51,C  48,H  52)          109.1046         0.318567   
    200. A(C  45,C  48,H  53)          110.1999         0.321211   
    201. A(C  51,C  48,H  53)          112.0670         0.319338   
    202. A(H  52,C  48,H  53)          106.7432         0.284490   
    203. A(C  48,C  51,H  55)          109.4820         0.318170   
    204. A(H  54,C  51,H  55)          107.6570         0.283401   
    205. A(C  42,C  51,C  48)          111.6065         0.357254   
    206. A(C  42,C  51,H  54)          109.1644         0.316556   
    207. A(C  48,C  51,H  54)          108.1280         0.318453   
    208. A(C  42,C  51,H  55)          110.6859         0.316275   
    209. A(H  61,C  56,H  62)          101.2078         0.287066   
    210. A(C  42,C  56,H  63)          115.0914         0.314455   
    211. A(H  61,C  56,H  63)          104.5285         0.285640   
    212. A(H  62,C  56,H  63)          108.1740         0.288766   
    213. A(C  42,C  56,H  61)          109.4060         0.312536   
    214. A(C  42,C  56,H  62)          116.8494         0.316089   
    215. A(C  42,C  57,H  58)          110.7125         0.316240   
    216. A(C  42,C  57,H  59)          111.3408         0.316597   
    217. A(H  58,C  57,H  59)          106.4897         0.283658   
    218. A(C  42,C  57,H  60)          110.9592         0.317095   
    219. A(H  58,C  57,H  60)          108.3164         0.284085   
    220. A(H  59,C  57,H  60)          108.8683         0.284392   
    221. D(C   2,C   1,C   0,C   5)     -0.0443         0.026487   
    222. D(C   2,C   1,C   0,H   6)    178.9113         0.026487   
    223. D(H   7,C   1,C   0,C   5)   -178.3170         0.026487   
    224. D(H   7,C   1,C   0,H   6)      0.6387         0.026487   
    225. D(B  10,C   2,C   1,C   0)   -175.7149         0.025037   
    226. D(C   3,C   2,C   1,C   0)      1.6590         0.025037   
    227. D(C   3,C   2,C   1,H   7)    179.9241         0.025037   
    228. D(B  10,C   2,C   1,H   7)      2.5502         0.025037   
    229. D(C   4,C   3,C   2,C   1)     -2.0212         0.022467   
    230. D(C   4,C   3,C   2,B  10)    175.4077         0.022467   
    231. D(N  41,C   3,C   2,C   1)    176.8663         0.022467   
    232. D(N  41,C   3,C   2,B  10)     -5.7048         0.022467   
    233. D(H   8,C   4,C   3,C   2)   -179.6317         0.025168   
    234. D(H   8,C   4,C   3,N  41)      1.3608         0.025168   
    235. D(C   5,C   4,C   3,C   2)      0.8240         0.025168   
    236. D(C   5,C   4,C   3,N  41)   -178.1836         0.025168   
    237. D(C   4,C   5,C   0,C   1)     -1.2266         0.027510   
    238. D(H   9,C   5,C   0,C   1)    179.4475         0.027510   
    239. D(C   4,C   5,C   0,H   6)    179.8226         0.027510   
    240. D(H   9,C   5,C   0,H   6)      0.4967         0.027510   
    241. D(C   0,C   5,C   4,C   3)      0.8390         0.026878   
    242. D(H   9,C   5,C   4,C   3)   -179.8289         0.026878   
    243. D(C   0,C   5,C   4,H   8)   -178.7081         0.026878   
    244. D(H   9,C   5,C   4,H   8)      0.6240         0.026878   
    245. D(H  19,B  10,C   2,C   1)    143.4787         0.010000   
    246. D(H  11,B  10,C   2,C   3)   -134.5684         0.010000   
    247. D(C  12,B  10,C   2,C   1)    -77.8967         0.010000   
    248. D(C  12,B  10,C   2,C   3)    104.7949         0.010000   
    249. D(H  19,B  10,C   2,C   3)    -33.8297         0.010000   
    250. D(H  11,B  10,C   2,C   1)     42.7399         0.010000   
    251. D(B  20,H  11,B  10,C   2)   -121.8755         0.014321   
    252. D(B  20,H  11,B  10,C  12)      2.9185         0.014321   
    253. D(B  20,H  11,B  10,H  19)    118.9510         0.014321   
    254. D(C  13,C  12,B  10,C   2)     20.7266         0.010000   
    255. D(S  44,C  12,B  10,C   2)   -142.7687         0.010000   
    256. D(C  13,C  12,B  10,H  19)    161.5350         0.010000   
    257. D(C  13,C  12,B  10,B  20)    -91.7156         0.010000   
    258. D(S  44,C  12,B  10,H  11)    102.8913         0.010000   
    259. D(C  13,C  12,B  10,H  11)    -93.6133         0.010000   
    260. D(C  14,C  13,C  12,B  10)   -165.8596         0.034407   
    261. D(C  14,C  13,C  12,S  44)     -0.8904         0.034407   
    262. D(H  15,C  13,C  12,B  10)     14.5880         0.034407   
    263. D(H  15,C  13,C  12,S  44)    179.5572         0.034407   
    264. D(C  16,C  14,C  13,H  15)   -179.8380         0.021821   
    265. D(C  16,C  14,C  13,C  12)      0.6235         0.021821   
    266. D(H  17,C  14,C  13,H  15)     -0.3866         0.021821   
    267. D(H  17,C  14,C  13,C  12)   -179.9251         0.021821   
    268. D(H  18,C  16,C  14,H  17)     -0.1041         0.031730   
    269. D(H  18,C  16,C  14,C  13)    179.3522         0.031730   
    270. D(S  44,C  16,C  14,H  17)   -179.4991         0.031730   
    271. D(S  44,C  16,C  14,C  13)     -0.0428         0.031730   
    272. D(H  11,B  20,B  10,C   2)     70.2500         0.010000   
    273. D(O  21,B  20,H  11,B  10)   -111.2898         0.034342   
    274. D(H  11,B  20,B  10,H  19)    -69.4968         0.010000   
    275. D(O  21,B  20,B  10,C   2)    163.4143         0.010000   
    276. D(O  21,B  20,B  10,H  11)     93.1643         0.010000   
    277. D(O  21,B  20,B  10,C  12)    -83.9977         0.010000   
    278. D(H  11,B  20,B  10,C  12)   -177.1620         0.010000   
    279. D(O  21,B  20,B  10,H  19)     23.6675         0.010000   
    280. D(O  22,B  20,H  11,B  10)    108.1789         0.034342   
    281. D(C  23,O  21,B  20,O  22)    -14.7994         0.036831   
    282. D(C  23,O  21,B  20,B  10)    154.9513         0.036831   
    283. D(C  23,O  21,B  20,H  11)   -156.6885         0.036831   
    284. D(C  24,O  22,B  20,B  10)   -174.2140         0.034973   
    285. D(C  24,O  22,B  20,H  11)    136.3163         0.034973   
    286. D(C  24,O  22,B  20,O  21)     -4.4363         0.034973   
    287. D(C  24,C  23,O  21,B  20)     25.6159         0.016135   
    288. D(C  25,C  23,O  21,B  20)    147.0177         0.016135   
    289. D(C  29,C  23,O  21,B  20)    -93.9736         0.016135   
    290. D(C  23,C  24,O  22,B  20)     19.8886         0.016202   
    291. D(C  37,C  24,O  22,B  20)    -99.4258         0.016202   
    292. D(O  22,C  24,C  23,O  21)    -27.8804         0.010000   
    293. D(C  33,C  24,C  23,C  25)     97.6857         0.010000   
    294. D(C  33,C  24,O  22,B  20)    141.6326         0.016202   
    295. D(O  22,C  24,C  23,C  25)   -144.7584         0.010000   
    296. D(O  22,C  24,C  23,C  29)     87.7142         0.010000   
    297. D(C  33,C  24,C  23,O  21)   -145.4362         0.010000   
    298. D(C  33,C  24,C  23,C  29)    -29.8417         0.010000   
    299. D(H  26,C  25,C  23,O  21)     66.2059         0.011832   
    300. D(H  26,C  25,C  23,C  24)    179.6626         0.011832   
    301. D(H  26,C  25,C  23,C  29)    -51.2331         0.011832   
    302. D(H  27,C  25,C  23,O  21)   -174.7368         0.011832   
    303. D(H  27,C  25,C  23,C  24)    -61.2801         0.011832   
    304. D(H  27,C  25,C  23,C  29)     67.8243         0.011832   
    305. D(H  30,C  29,C  23,O  21)    -56.0461         0.011255   
    306. D(H  30,C  29,C  23,C  24)   -168.4236         0.011255   
    307. D(H  30,C  29,C  23,C  25)     61.7300         0.011255   
    308. D(H  31,C  29,C  23,O  21)     63.1193         0.011255   
    309. D(H  31,C  29,C  23,C  24)    -49.2582         0.011255   
    310. D(H  31,C  29,C  23,C  25)   -179.1046         0.011255   
    311. D(H  34,C  33,C  24,O  22)     66.0937         0.011831   
    312. D(H  34,C  33,C  24,C  23)   -179.7529         0.011831   
    313. D(H  34,C  33,C  24,C  37)    -50.2659         0.011831   
    314. D(H  35,C  33,C  24,O  22)   -174.7480         0.011831   
    315. D(H  35,C  33,C  24,C  23)    -60.5946         0.011831   
    316. D(H  35,C  33,C  24,C  37)     68.8924         0.011831   
    317. D(H  38,C  37,C  24,O  22)   -176.0862         0.011270   
    318. D(H  38,C  37,C  24,C  23)     71.7807         0.011270   
    319. D(H  38,C  37,C  24,C  33)    -58.3890         0.011270   
    320. D(H  39,C  37,C  24,O  22)    -56.3897         0.011270   
    321. D(H  39,C  37,C  24,C  23)   -168.5229         0.011270   
    322. D(H  39,C  37,C  24,C  33)     61.3074         0.011270   
    323. D(C  42,N  41,C   3,C   2)    115.8524         0.014611   
    324. D(C  42,N  41,C   3,C   4)    -65.2063         0.014611   
    325. D(C  43,N  41,C   3,C   2)    -85.9022         0.014611   
    326. D(C  43,N  41,C   3,C   4)     93.0391         0.014611   
    327. D(C  51,C  42,N  41,C   3)   -147.2891         0.011238   
    328. D(C  51,C  42,N  41,C  43)     54.1858         0.011238   
    329. D(C  56,C  42,N  41,C   3)     91.3113         0.011238   
    330. D(C  56,C  42,N  41,C  43)    -67.2138         0.011238   
    331. D(C  57,C  42,N  41,C   3)    -29.1043         0.011238   
    332. D(C  45,C  43,N  41,C   3)    149.5436         0.011742   
    333. D(C  45,C  43,N  41,C  42)    -52.0112         0.011742   
    334. D(C  46,C  43,N  41,C   3)     31.5717         0.011742   
    335. D(C  46,C  43,N  41,C  42)   -169.9831         0.011742   
    336. D(C  47,C  43,N  41,C   3)    -85.1935         0.011742   
    337. D(C  16,S  44,C  12,B  10)    167.1211         0.010000   
    338. D(C  16,S  44,C  12,C  13)      0.7250         0.010000   
    339. D(C  12,S  44,C  16,C  14)     -0.3940         0.010000   
    340. D(C  12,S  44,C  16,H  18)   -179.8352         0.010000   
    341. D(C  48,C  45,C  43,N  41)     51.7210         0.010000   
    342. D(C  48,C  45,C  43,C  46)    174.1075         0.010000   
    343. D(C  48,C  45,C  43,C  47)    -74.4441         0.010000   
    344. D(H  49,C  45,C  43,N  41)    -65.7151         0.010000   
    345. D(H  49,C  45,C  43,C  46)     56.6714         0.010000   
    346. D(H  49,C  45,C  43,C  47)    168.1199         0.010000   
    347. D(H  64,C  46,C  43,N  41)     68.7000         0.010315   
    348. D(H  64,C  46,C  43,C  45)    -50.5508         0.010315   
    349. D(H  64,C  46,C  43,C  47)   -168.3431         0.010315   
    350. D(H  65,C  46,C  43,N  41)    -55.8667         0.010315   
    351. D(H  65,C  46,C  43,C  45)   -175.1175         0.010315   
    352. D(H  65,C  46,C  43,C  47)     67.0902         0.010315   
    353. D(H  67,C  47,C  43,N  41)    -69.2056         0.010000   
    354. D(H  67,C  47,C  43,C  45)     54.1972         0.010000   
    355. D(H  67,C  47,C  43,C  46)    167.9116         0.010000   
    356. D(H  68,C  47,C  43,N  41)    175.0591         0.010000   
    357. D(H  68,C  47,C  43,C  45)    -61.5381         0.010000   
    358. D(H  68,C  47,C  43,C  46)     52.1763         0.010000   
    359. D(C  51,C  48,C  45,C  43)    -56.9727         0.011238   
    360. D(C  51,C  48,C  45,H  49)     61.9803         0.011238   
    361. D(C  51,C  48,C  45,H  50)    178.0367         0.011238   
    362. D(H  52,C  48,C  45,C  43)   -176.3505         0.011238   
    363. D(H  52,C  48,C  45,H  49)    -57.3975         0.011238   
    364. D(H  52,C  48,C  45,H  50)     58.6589         0.011238   
    365. D(C  48,C  51,C  42,N  41)    -55.5544         0.010000   
    366. D(H  54,C  51,C  48,H  52)     58.3893         0.010509   
    367. D(C  48,C  51,C  42,C  57)   -175.6199         0.010000   
    368. D(H  54,C  51,C  42,N  41)     63.9135         0.010000   
    369. D(H  54,C  51,C  42,C  56)   -169.1705         0.010000   
    370. D(H  54,C  51,C  42,C  57)    -56.1520         0.010000   
    371. D(C  42,C  51,C  48,C  45)     59.0173         0.010509   
    372. D(C  42,C  51,C  48,H  52)    178.4686         0.010509   
    373. D(C  42,C  51,C  48,H  53)    -63.5369         0.010509   
    374. D(C  48,C  51,C  42,C  56)     71.3616         0.010000   
    375. D(H  54,C  51,C  48,C  45)    -61.0620         0.010509   
    376. D(H  54,C  51,C  48,H  53)    176.3838         0.010509   
    377. D(H  61,C  56,C  42,N  41)   -176.9774         0.010000   
    378. D(H  61,C  56,C  42,C  51)     61.5457         0.010000   
    379. D(H  61,C  56,C  42,C  57)    -53.4626         0.010000   
    380. D(H  62,C  56,C  42,N  41)     68.8616         0.010000   
    381. D(H  62,C  56,C  42,C  51)    -52.6153         0.010000   
    382. D(H  62,C  56,C  42,C  57)   -167.6236         0.010000   
    383. D(H  58,C  57,C  42,N  41)   -175.5071         0.010000   
    384. D(H  58,C  57,C  42,C  51)    -57.4409         0.010000   
    385. D(H  58,C  57,C  42,C  56)     57.3291         0.010000   
    386. D(H  59,C  57,C  42,N  41)     66.2294         0.010000   
    387. D(H  59,C  57,C  42,C  51)   -175.7044         0.010000   
    388. D(H  59,C  57,C  42,C  56)    -60.9344         0.010000   
    -----------------------------------------------------------------

Number of atoms                         .... 70
Number of degrees of freedom            .... 388


         *************************************************************
         *                GEOMETRY OPTIMIZATION CYCLE   1            *
         *************************************************************
---------------------------------
CARTESIAN COORDINATES (ANGSTROEM)
---------------------------------
  C     -2.056480   -2.081670    0.887750
  C     -0.715420   -1.709100    0.934650
  C     -0.284170   -0.421330    0.595020
  C     -1.269420    0.524240    0.228420
  C     -2.615110    0.144820    0.174020
  C     -3.007070   -1.150970    0.492630
  H     -2.349160   -3.095760    1.142030
  H      0.021920   -2.454720    1.218850
  H     -3.368780    0.870220   -0.113270
  H     -4.057300   -1.422680    0.440340
  B      1.264500   -0.025460    0.553240
  H      1.776710   -1.140410   -0.069330
  C      1.998460    0.254560    1.965320
  C      1.621540   -0.155760    3.226950
  C      2.294770    0.510510    4.281870
  H      0.876720   -0.929620    3.371970
  C      3.181180    1.444860    3.815840
  H      2.126600    0.315920    5.333820
  H      3.814950    2.098680    4.399300
  H      1.621310    0.737530   -0.300160
  B      2.598440   -1.501110    0.821020
  O      3.914590   -1.366730    0.485730
  O      2.306590   -2.625460    1.549840
  C      4.633140   -2.301590    1.325790
  C      3.535970   -3.383850    1.638300
  C      5.830750   -2.820080    0.543780
  H      6.535110   -2.003570    0.367660
  H      6.347850   -3.600570    1.110850
  H      5.533800   -3.227540   -0.423570
  C      5.103620   -1.543190    2.566760
  H      5.698630   -0.684250    2.248650
  H      4.263680   -1.171240    3.158630
  H      5.724360   -2.180250    3.202920
  C      3.628600   -3.997030    3.027580
  H      2.835370   -4.737630    3.156940
  H      4.591010   -4.500980    3.160190
  H      3.518020   -3.238960    3.804360
  C      3.445800   -4.478590    0.575600
  H      4.308310   -5.149560    0.614220
  H      2.541190   -5.065160    0.752360
  H      3.380270   -4.048420   -0.427330
  N     -1.024650    1.928260   -0.094270
  C     -1.316670    2.419370   -1.490870
  C     -0.972850    2.940810    1.014830
  S      3.195250    1.510440    2.104250
  C      0.000080    4.081960    0.598760
  C     -0.431100    2.370790    2.340360
  C     -2.369440    3.486480    1.422880
  C     -0.319890    4.660000   -0.779890
  H      1.031030    3.665030    0.528050
  H      0.019510    4.892170    1.360190
  C     -0.293700    3.532430   -1.826290
  H      0.446370    5.419930   -1.044840
  H     -1.294810    5.184350   -0.757720
  H      0.728970    3.096360   -1.839430
  H     -0.492360    3.957950   -2.835720
  C     -2.753960    2.996480   -1.753580
  C     -1.144220    1.280770   -2.527280
  H     -1.281430    1.666350   -3.562010
  H     -1.905690    0.484810   -2.383840
  H     -0.135070    0.828520   -2.455100
  H     -2.851990    3.268820   -2.826040
  H     -3.000750    3.944090   -1.270570
  H     -3.580070    2.292660   -1.570830
  H      0.614470    2.149270    2.220820
  H     -0.998740    1.485360    2.696140
  H     -0.439480    3.131300    3.151890
  H     -2.875600    4.123010    0.702400
  H     -2.275510    4.161220    2.303460
  H     -3.044340    2.653550    1.713050

----------------------------
CARTESIAN COORDINATES (A.U.)
----------------------------
  NO LB      ZA    FRAG     MASS         X           Y           Z
   0 C     6.0000    0    12.011   -3.886184   -3.933786    1.677604
   1 C     6.0000    0    12.011   -1.351948   -3.229731    1.766233
   2 C     6.0000    0    12.011   -0.537003   -0.796198    1.124425
   3 C     6.0000    0    12.011   -2.398856    0.990670    0.431651
   4 C     6.0000    0    12.011   -4.941842    0.273670    0.328850
   5 C     6.0000    0    12.011   -5.682539   -2.175018    0.930936
   6 H     1.0000    0     1.008   -4.439269   -5.850139    2.158124
   7 H     1.0000    0     1.008    0.041423   -4.638749    2.303293
   8 H     1.0000    0     1.008   -6.366072    1.644477   -0.214049
   9 H     1.0000    0     1.008   -7.667186   -2.688476    0.832122
  10 B     5.0000    0    10.810    2.389559   -0.048112    1.045472
  11 H     1.0000    0     1.008    3.357495   -2.155063   -0.131015
  12 C     6.0000    0    12.011    3.776542    0.481049    3.713917
  13 C     6.0000    0    12.011    3.064267   -0.294344    6.098052
  14 C     6.0000    0    12.011    4.336487    0.964724    8.091562
  15 H     1.0000    0     1.008    1.656761   -1.756727    6.372100
  16 C     6.0000    0    12.011    6.011559    2.730390    7.210893
  17 H     1.0000    0     1.008    4.018692    0.597002   10.079459
  18 H     1.0000    0     1.008    7.209211    3.965930    8.313472
  19 H     1.0000    0     1.008    3.063832    1.393730   -0.567220
  20 B     5.0000    0    10.810    4.910340   -2.836687    1.551503
  21 O     8.0000    0    15.999    7.397503   -2.582745    0.917897
  22 O     8.0000    0    15.999    4.358823   -4.961400    2.928773
  23 C     6.0000    0    12.011    8.755366   -4.349375    2.505380
  24 C     6.0000    0    12.011    6.682015   -6.394550    3.095938
  25 C     6.0000    0    12.011   11.018521   -5.329179    1.027595
  26 H     1.0000    0     1.008   12.349568   -3.786199    0.694777
  27 H     1.0000    0     1.008   11.995698   -6.804091    2.099202
  28 H     1.0000    0     1.008   10.457366   -6.099167   -0.800431
  29 C     6.0000    0    12.011    9.644444   -2.916206    4.850473
  30 H     1.0000    0     1.008   10.768850   -1.293045    4.249333
  31 H     1.0000    0     1.008    8.057188   -2.213323    5.968946
  32 H     1.0000    0     1.008   10.817473   -4.120075    6.052642
  33 C     6.0000    0    12.011    6.857060   -7.553292    5.721297
  34 H     1.0000    0     1.008    5.358073   -8.952823    5.965752
  35 H     1.0000    0     1.008    8.675752   -8.505620    5.971894
  36 H     1.0000    0     1.008    6.648094   -6.120747    7.189199
  37 C     6.0000    0    12.011    6.511618   -8.463309    1.087726
  38 H     1.0000    0     1.008    8.141526   -9.731258    1.160708
  39 H     1.0000    0     1.008    4.802153   -9.571765    1.421754
  40 H     1.0000    0     1.008    6.387785   -7.650405   -0.807537
  41 N     7.0000    0    14.007   -1.936308    3.643883   -0.178144
  42 C     6.0000    0    12.011   -2.488146    4.571947   -2.817336
  43 C     6.0000    0    12.011   -1.838420    5.557326    1.917751
  44 S    16.0000    0    32.060    6.038147    2.854318    3.976456
  45 C     6.0000    0    12.011    0.000151    7.713786    1.131492
  46 C     6.0000    0    12.011   -0.814661    4.480144    4.422639
  47 C     6.0000    0    12.011   -4.477593    6.588492    2.688854
  48 C     6.0000    0    12.011   -0.604504    8.806124   -1.473779
  49 H     1.0000    0     1.008    1.948364    6.925903    0.997870
  50 H     1.0000    0     1.008    0.036869    9.244862    2.570387
  51 C     6.0000    0    12.011   -0.555013    6.675325   -3.451188
  52 H     1.0000    0     1.008    0.843517   10.242183   -1.974461
  53 H     1.0000    0     1.008   -2.446836    9.797002   -1.431883
  54 H     1.0000    0     1.008    1.377554    5.851272   -3.476019
  55 H     1.0000    0     1.008   -0.930426    7.479442   -5.358734
  56 C     6.0000    0    12.011   -5.204230    5.662527   -3.313786
  57 C     6.0000    0    12.011   -2.162262    2.420305   -4.775867
  58 H     1.0000    0     1.008   -2.421552    3.148945   -6.731223
  59 H     1.0000    0     1.008   -3.601232    0.916158   -4.504805
  60 H     1.0000    0     1.008   -0.255245    1.565676   -4.639467
  61 H     1.0000    0     1.008   -5.389480    6.177175   -5.340442
  62 H     1.0000    0     1.008   -5.670596    7.453250   -2.401029
  63 H     1.0000    0     1.008   -6.765352    4.332500   -2.968439
  64 H     1.0000    0     1.008    1.161180    4.061532    4.196742
  65 H     1.0000    0     1.008   -1.887345    2.806924    5.094966
  66 H     1.0000    0     1.008   -0.830497    5.917299    5.956209
  67 H     1.0000    0     1.008   -5.434096    7.791360    1.327344
  68 H     1.0000    0     1.008   -4.300091    7.863566    4.352909
  69 H     1.0000    0     1.008   -5.752969    5.014483    3.237195

--------------------------------
INTERNAL COORDINATES (ANGSTROEM)
--------------------------------
 C      0   0   0     0.000000000000     0.00000000     0.00000000
 C      1   0   0     1.392641353149     0.00000000     0.00000000
 C      2   1   0     1.399884521059   122.31558617     0.00000000
 C      3   2   1     1.413936260020   117.60888926     1.65903935
 C      4   3   2     1.399214233954   119.92699434   357.97879345
 C      1   2   3     1.387783719641   119.32571448   359.95568831
 H      1   2   3     1.085678787165   120.10571437   178.91134774
 H      2   1   3     1.086457132150   118.60293862   181.72734511
 H      5   4   3     1.084785311940   119.81187759   180.36832203
 H      6   1   2     1.086067963389   120.55042835   179.44749986
 B      3   2   1     1.599011380260   122.17085273   184.28509840
 H     11   3   2     1.375887346951    99.89010561    42.73994642
 C     11   3   2     1.615883166692   117.38614563   282.10325155
 C     13  11   3     1.379181440457   128.58700246    20.72659648
 C     14  13  11     1.417748409345   114.27214913   194.14037998
 H     14  13  11     1.083811299258   121.50957255    14.58803390
 C     15  14  13     1.369641037462   112.00793482     0.62348729
 H     15  14  13     1.082933617310   124.37500155   180.07491286
 H     17  15  14     1.081466863524   127.45401031   179.35222192
 H     11   3   2     1.199065751408   117.66726593   143.47865199
 B     12  11   3     1.264147066365    98.88880057   238.12445162
 O     21  12  11     1.364818006549   115.19682711   248.71020404
 O     21  12  11     1.371319779410   118.02933859   108.17887572
 C     22  21  12     1.447749331100   105.81286622   203.31151921
 C     23  21  12     1.447188912375   106.34130636   136.31634065
 C     24  22  21     1.521394502521   108.21026003   147.01772757
 H     26  24  22     1.092625207516   109.61090619    66.20585097
 H     26  24  22     1.094589162654   110.40103794   185.26316430
 H     26  24  22     1.090856991819   111.64317989   306.38148601
 C     24  22  21     1.528570747888   107.66558449   266.02642098
 H     30  24  22     1.092249420142   108.74733149   303.95388160
 H     30  24  22     1.092774497781   111.83983942    63.11932788
 H     30  24  22     1.093555273774   110.97486868   184.60481330
 C     25  23  21     1.521403611045   108.58713443   141.63256080
 H     34  25  23     1.092902650056   109.69479064    66.09372143
 H     34  25  23     1.094433197002   110.47322483   185.25203911
 H     34  25  23     1.091001938449   111.34240606   306.30476551
 C     25  23  21     1.528370892977   106.42391796   260.57417185
 H     38  25  23     1.093442154574   111.61915384   183.91384016
 H     38  25  23     1.092532706421   108.71845583   303.61026067
 H     38  25  23     1.093256143225   111.07351206    62.38655817
 N      4   3   2     1.461271141643   125.66781829   176.86625153
 C     42   4   3     1.508958671568   118.99154068   115.85238137
 C     42   4   3     1.502678792191   119.35470163   274.09782942
 S     17  15  14     1.712903683632   111.80384938   359.95719956
 C     44  42   4     1.556255233662   108.56130899   149.54358096
 C     44  42   4     1.541248079901   113.43341332    31.57166230
 C     44  42   4     1.553938280467   113.54378111   274.80646398
 C     46  44  42     1.528786075617   112.79913768    51.72097708
 H     46  44  42     1.114310742791   108.72411108   294.28491635
 H     46  44  42     1.112022218258   111.22993811   176.16092963
 C     49  46  44     1.538522986829   109.43078012   303.02726810
 H     49  46  44     1.111236471234   109.22393981   183.64950353
 H     49  46  44     1.107205237433   110.19987080    66.68827778
 H     52  49  46     1.111837952851   108.12796132   298.93799973
 H     52  49  46     1.113320255317   109.48203480   181.91411399
 C     43  42   4     1.570947179348   116.83358390    91.31134192
 C     43  42   4     1.549288433637   111.00305944   330.89565130
 H     58  43  42     1.112728490423   110.71253412   184.49290105
 H     58  43  42     1.110839284550   111.34083893    66.22939188
 H     58  43  42     1.108207443307   110.95918259   304.79920947
 H     57  43  42     1.110832754333   109.40601091   183.02258299
 H     57  43  42     1.091864770152   116.84938672    68.86158544
 H     57  43  42     1.100553445772   115.09138719   300.32194590
 H     47  44  42     1.075442953810   108.80333287    68.69999306
 H     47  44  42     1.110306652642   113.00542458   304.13330124
 H     47  44  42     1.112216986653   111.83823522   182.11419752
 H     48  44  42     1.086489676389   116.76228331   290.79439211
 H     48  44  42     1.113336449102   110.16256642   175.05910632
 H     48  44  42     1.110612904571   110.57307658    56.49122844

---------------------------
INTERNAL COORDINATES (A.U.)
---------------------------
 C      0   0   0     0.000000000000     0.00000000     0.00000000
 C      1   0   0     2.631710760225     0.00000000     0.00000000
 C      2   1   0     2.645398363917   122.31558617     0.00000000
 C      3   2   1     2.671952302259   117.60888926     1.65903935
 C      4   3   2     2.644131704858   119.92699434   357.97879345
 C      1   2   3     2.622531163236   119.32571448   359.95568831
 H      1   2   3     2.051635577150   120.10571437   178.91134774
 H      2   1   3     2.053106436009   118.60293862   181.72734511
 H      5   4   3     2.049947153666   119.81187759   180.36832203
 H      6   1   2     2.052371013631   120.55042835   179.44749986
 B      3   2   1     3.021693593714   122.17085273   184.28509840
 H     11   3   2     2.600050276865    99.89010561    42.73994642
 C     11   3   2     3.053576649462   117.38614563   282.10325155
 C     13  11   3     2.606275211450   128.58700246    20.72659648
 C     14  13  11     2.679156220464   114.27214913   194.14037998
 H     14  13  11     2.048106536448   121.50957255    14.58803390
 C     15  14  13     2.588246462583   112.00793482     0.62348729
 H     15  14  13     2.046447957932   124.37500155   180.07491286
 H     17  15  14     2.043676194971   127.45401031   179.35222192
 H     11   3   2     2.265905886726   117.66726593   143.47865199
 B     12  11   3     2.388891748430    98.88880057   238.12445162
 O     21  12  11     2.579132255022   115.19682711   248.71020404
 O     21  12  11     2.591418825113   118.02933859   108.17887572
 C     22  21  12     2.735849746346   105.81286622   203.31151921
 C     23  21  12     2.734790708435   106.34130636   136.31634065
 C     24  22  21     2.875018951417   108.21026003   147.01772757
 H     26  24  22     2.064762409225   109.61090619    66.20585097
 H     26  24  22     2.068473746575   110.40103794   185.26316430
 H     26  24  22     2.061420965811   111.64317989   306.38148601
 C     24  22  21     2.888580089832   107.66558449   266.02642098
 H     30  24  22     2.064052274002   108.74733149   303.95388160
 H     30  24  22     2.065044526939   111.83983942    63.11932788
 H     30  24  22     2.066519979739   110.97486868   184.60481330
 C     25  23  21     2.875036164033   108.58713443   141.63256080
 H     34  25  23     2.065286699643   109.69479064    66.09372143
 H     34  25  23     2.068179014206   110.47322483   185.25203911
 H     34  25  23     2.061694875246   111.34240606   306.30476551
 C     25  23  21     2.888202418784   106.42391796   260.57417185
 H     38  25  23     2.066306215430   111.61915384   183.91384016
 H     38  25  23     2.064587607488   108.71845583   303.61026067
 H     38  25  23     2.065954704923   111.07351206    62.38655817
 N      4   3   2     2.761402265109   125.66781829   176.86625153
 C     42   4   3     2.851518636669   118.99154068   115.85238137
 C     42   4   3     2.839651384492   119.35470163   274.09782942
 S     17  15  14     3.236918855849   111.80384938   359.95719956
 C     44  42   4     2.940896186103   108.56130899   149.54358096
 C     44  42   4     2.912536775446   113.43341332    31.57166230
 C     44  42   4     2.936517779099   113.54378111   274.80646398
 C     46  44  42     2.888987000268   112.79913768    51.72097708
 H     46  44  42     2.105742131962   108.72411108   294.28491635
 H     46  44  42     2.101417447344   111.22993811   176.16092963
 C     49  46  44     2.907387095849   109.43078012   303.02726810
 H     49  46  44     2.099932600657   109.22393981   183.64950353
 H     49  46  44     2.092314672792   110.19987080    66.68827778
 H     52  49  46     2.101069236188   108.12796132   298.93799973
 H     52  49  46     2.103870381897   109.48203480   181.91411399
 C     43  42   4     2.968659939823   116.83358390    91.31134192
 C     43  42   4     2.927730842025   111.00305944   330.89565130
 H     58  43  42     2.102752108312   110.71253412   184.49290105
 H     58  43  42     2.099182026601   111.34083893    66.22939188
 H     58  43  42     2.094208567422   110.95918259   304.79920947
 H     57  43  42     2.099169686280   109.40601091   183.02258299
 H     57  43  42     2.063325390865   116.84938672    68.86158544
 H     57  43  42     2.079744608252   115.09138719   300.32194590
 H     47  44  42     2.032292655357   108.80333287    68.69999306
 H     47  44  42     2.098175498163   113.00542458   304.13330124
 H     47  44  42     2.101785506270   111.83823522   182.11419752
 H     48  44  42     2.053167935708   116.76228331   290.79439211
 H     48  44  42     2.103900983716   110.16256642   175.05910632
 H     48  44  42     2.098754230438   110.57307658    56.49122844

---------------------
BASIS SET INFORMATION
---------------------
There are 6 groups of distinct atoms

 Group   1 Type C   : 10s4p1d contracted to 3s2p1d pattern {631/31/1}
 Group   2 Type H   : 4s1p contracted to 2s1p pattern {31/1}
 Group   3 Type B   : 10s4p1d contracted to 3s2p1d pattern {631/31/1}
 Group   4 Type O   : 10s4p1d contracted to 3s2p1d pattern {631/31/1}
 Group   5 Type N   : 10s4p1d contracted to 3s2p1d pattern {631/31/1}
 Group   6 Type S   : 16s10p1d contracted to 4s3p1d pattern {6631/631/1}

Atom   0C    basis set group =>   1
Atom   1C    basis set group =>   1
Atom   2C    basis set group =>   1
Atom   3C    basis set group =>   1
Atom   4C    basis set group =>   1
Atom   5C    basis set group =>   1
Atom   6H    basis set group =>   2
Atom   7H    basis set group =>   2
Atom   8H    basis set group =>   2
Atom   9H    basis set group =>   2
Atom  10B    basis set group =>   3
Atom  11H    basis set group =>   2
Atom  12C    basis set group =>   1
Atom  13C    basis set group =>   1
Atom  14C    basis set group =>   1
Atom  15H    basis set group =>   2
Atom  16C    basis set group =>   1
Atom  17H    basis set group =>   2
Atom  18H    basis set group =>   2
Atom  19H    basis set group =>   2
Atom  20B    basis set group =>   3
Atom  21O    basis set group =>   4
Atom  22O    basis set group =>   4
Atom  23C    basis set group =>   1
Atom  24C    basis set group =>   1
Atom  25C    basis set group =>   1
Atom  26H    basis set group =>   2
Atom  27H    basis set group =>   2
Atom  28H    basis set group =>   2
Atom  29C    basis set group =>   1
Atom  30H    basis set group =>   2
Atom  31H    basis set group =>   2
Atom  32H    basis set group =>   2
Atom  33C    basis set group =>   1
Atom  34H    basis set group =>   2
Atom  35H    basis set group =>   2
Atom  36H    basis set group =>   2
Atom  37C    basis set group =>   1
Atom  38H    basis set group =>   2
Atom  39H    basis set group =>   2
Atom  40H    basis set group =>   2
Atom  41N    basis set group =>   5
Atom  42C    basis set group =>   1
Atom  43C    basis set group =>   1
Atom  44S    basis set group =>   6
Atom  45C    basis set group =>   1
Atom  46C    basis set group =>   1
Atom  47C    basis set group =>   1
Atom  48C    basis set group =>   1
Atom  49H    basis set group =>   2
Atom  50H    basis set group =>   2
Atom  51C    basis set group =>   1
Atom  52H    basis set group =>   2
Atom  53H    basis set group =>   2
Atom  54H    basis set group =>   2
Atom  55H    basis set group =>   2
Atom  56C    basis set group =>   1
Atom  57C    basis set group =>   1
Atom  58H    basis set group =>   2
Atom  59H    basis set group =>   2
Atom  60H    basis set group =>   2
Atom  61H    basis set group =>   2
Atom  62H    basis set group =>   2
Atom  63H    basis set group =>   2
Atom  64H    basis set group =>   2
Atom  65H    basis set group =>   2
Atom  66H    basis set group =>   2
Atom  67H    basis set group =>   2
Atom  68H    basis set group =>   2
Atom  69H    basis set group =>   2
---------------------------------
AUXILIARY/J BASIS SET INFORMATION
---------------------------------
There are 6 groups of distinct atoms

 Group   1 Type C   : 12s5p4d2f1g contracted to 6s4p3d1f1g pattern {711111/2111/211/2/1}
 Group   2 Type H   : 5s2p1d contracted to 3s1p1d pattern {311/2/1}
 Group   3 Type B   : 12s5p4d2f1g contracted to 6s4p3d1f1g pattern {711111/2111/211/2/1}
 Group   4 Type O   : 12s5p4d2f1g contracted to 6s4p3d1f1g pattern {711111/2111/211/2/1}
 Group   5 Type N   : 12s5p4d2f1g contracted to 6s4p3d1f1g pattern {711111/2111/211/2/1}
 Group   6 Type S   : 14s5p5d2f1g contracted to 8s4p3d1f1g pattern {71111111/2111/311/2/1}

Atom   0C    basis set group =>   1
Atom   1C    basis set group =>   1
Atom   2C    basis set group =>   1
Atom   3C    basis set group =>   1
Atom   4C    basis set group =>   1
Atom   5C    basis set group =>   1
Atom   6H    basis set group =>   2
Atom   7H    basis set group =>   2
Atom   8H    basis set group =>   2
Atom   9H    basis set group =>   2
Atom  10B    basis set group =>   3
Atom  11H    basis set group =>   2
Atom  12C    basis set group =>   1
Atom  13C    basis set group =>   1
Atom  14C    basis set group =>   1
Atom  15H    basis set group =>   2
Atom  16C    basis set group =>   1
Atom  17H    basis set group =>   2
Atom  18H    basis set group =>   2
Atom  19H    basis set group =>   2
Atom  20B    basis set group =>   3
Atom  21O    basis set group =>   4
Atom  22O    basis set group =>   4
Atom  23C    basis set group =>   1
Atom  24C    basis set group =>   1
Atom  25C    basis set group =>   1
Atom  26H    basis set group =>   2
Atom  27H    basis set group =>   2
Atom  28H    basis set group =>   2
Atom  29C    basis set group =>   1
Atom  30H    basis set group =>   2
Atom  31H    basis set group =>   2
Atom  32H    basis set group =>   2
Atom  33C    basis set group =>   1
Atom  34H    basis set group =>   2
Atom  35H    basis set group =>   2
Atom  36H    basis set group =>   2
Atom  37C    basis set group =>   1
Atom  38H    basis set group =>   2
Atom  39H    basis set group =>   2
Atom  40H    basis set group =>   2
Atom  41N    basis set group =>   5
Atom  42C    basis set group =>   1
Atom  43C    basis set group =>   1
Atom  44S    basis set group =>   6
Atom  45C    basis set group =>   1
Atom  46C    basis set group =>   1
Atom  47C    basis set group =>   1
Atom  48C    basis set group =>   1
Atom  49H    basis set group =>   2
Atom  50H    basis set group =>   2
Atom  51C    basis set group =>   1
Atom  52H    basis set group =>   2
Atom  53H    basis set group =>   2
Atom  54H    basis set group =>   2
Atom  55H    basis set group =>   2
Atom  56C    basis set group =>   1
Atom  57C    basis set group =>   1
Atom  58H    basis set group =>   2
Atom  59H    basis set group =>   2
Atom  60H    basis set group =>   2
Atom  61H    basis set group =>   2
Atom  62H    basis set group =>   2
Atom  63H    basis set group =>   2
Atom  64H    basis set group =>   2
Atom  65H    basis set group =>   2
Atom  66H    basis set group =>   2
Atom  67H    basis set group =>   2
Atom  68H    basis set group =>   2
Atom  69H    basis set group =>   2


           ************************************************************
           *        Program running with 20 parallel MPI-processes    *
           *              working on a common directory               *
           ************************************************************
------------------------------------------------------------------------------
                             ORCA STARTUP CALCULATIONS
                           -- RI-GTO INTEGRALS CHOSEN --
------------------------------------------------------------------------------
------------------------------------------------------------------------------
                   ___                                                        
                  /   \      - P O W E R E D   B Y -                         
                 /     \                                                     
                 |  |  |   _    _      __       _____    __    __             
                 |  |  |  | |  | |    /  \     |  _  \  |  |  /  |          
                  \  \/   | |  | |   /    \    | | | |  |  | /  /          
                 / \  \   | |__| |  /  /\  \   | |_| |  |  |/  /          
                |  |  |   |  __  | /  /__\  \  |    /   |      \           
                |  |  |   | |  | | |   __   |  |    \   |  |\   \          
                \     /   | |  | | |  |  |  |  | |\  \  |  | \   \       
                 \___/    |_|  |_| |__|  |__|  |_| \__\ |__|  \__/        
                                                                              
                      - O R C A' S   B I G   F R I E N D -                    
                                      &                                       
                       - I N T E G R A L  F E E D E R -                       
                                                                              
 v1 FN, 2020, v2 2021, v3 2022-2024                                           
------------------------------------------------------------------------------


----------------------
SHARK INTEGRAL PACKAGE
----------------------

Number of atoms                             ...     70
Number of basis functions                   ...    633
Number of shells                            ...    305
Maximum angular momentum                    ...      2
Integral batch strategy                     ... SHARK/LIBINT Hybrid
RI-J (if used) integral strategy            ... SPLIT-RIJ (Revised 2003 algorithm where possible)
Printlevel                                  ...      1
Contraction scheme used                     ... SEGMENTED contraction
Prescreening option                         ... SCHWARTZ
   Thresh                                   ... 2.500e-11
   Tcut                                     ... 2.500e-12
   Tpresel                                  ... 2.500e-12 
Coulomb Range Separation                    ... NOT USED
Exchange Range Separation                   ... Long Range
   Mu parameter                             ... 2.500e-01
   Scaling (regular/separated)              ... 1.957e-01 8.043e-01
Robust (split-)RI terms used:
  metric    (central integrals)             ... YES
  density   (r.h.s.  integrals)             ... YES
  potential (l.h.s.  integrals)             ... YES
Multipole approximations                    ... NOT USED
Finite Nucleus Model                        ... NOT USED
CABS basis                                  ... NOT available
Auxiliary Coulomb fitting basis             ... AVAILABLE
   # of basis functions in Aux-J            ...   1950
   # of shells in Aux-J                     ...    662
   Maximum angular momentum in Aux-J        ...      4
Auxiliary J/K fitting basis                 ... NOT available
Auxiliary Correlation fitting basis         ... NOT available
Auxiliary 'external' fitting basis          ... NOT available

Checking pre-screening integrals            ... done (  0.1 sec) Dimension = 305
   => SHARK Basis and OBASIS are compatible. Storing Pre-screening
Shell pair information
Shell pair cut-off parameter TPreSel        ...   2.5e-12
Total number of shell pairs                 ...     46665
Shell pairs after pre-screening             ...     28530
Total number of primitive shell pairs       ...    226926
Primitive shell pairs kept                  ...     77237
          la=0 lb=0:   9222 shell pairs
          la=1 lb=0:  10871 shell pairs
          la=1 lb=1:   3275 shell pairs
          la=2 lb=0:   3077 shell pairs
          la=2 lb=1:   1816 shell pairs
          la=2 lb=2:    269 shell pairs

Checking whether 4 symmetric matrices of dimension 633 fit in memory
:Max Core in MB      =   4096.00
 MB in use           =     39.96
 MB left             =   4056.04
 MB needed           =      6.12
 Data fit in memory  = YES
Calculating RI/J V-Matrix + Cholesky decomp.... done (  0.3 sec)
Calculating Nuclear repulsion               ... done (  0.0 sec) ENN=   3555.543898376317 Eh

Diagonalization of the overlap matrix:
Smallest eigenvalue                        ... 4.035e-04
Time for diagonalization                   ...    0.060 sec
Threshold for overlap eigenvalues          ... 1.000e-07
Number of eigenvalues below threshold      ... 0
Time for construction of square roots      ...    0.034 sec
Total time needed                          ...    0.099 sec

-------------------
DFT GRID GENERATION
-------------------

General Integration Accuracy     IntAcc      ... 4.388
Radial Grid Type                 RadialGrid  ... OptM3 with GC (2021)
Angular Grid (max. ang.)         AngularGrid ... 4 (Lebedev-302)
Angular grid pruning method      GridPruning ... 4 (adaptive)
Weight generation scheme         WeightScheme... mBecke (2022)
Basis function cutoff            BFCut       ... 1.0000e-11
Integration weight cutoff        WCut        ... 1.0000e-14
Partially contracted basis set               ... off
Rotationally invariant grid construction     ... off
Angular grids for H and He will be reduced by one unit

Total number of grid points                  ...   306096
Total number of batches                      ...     4820
Average number of points per batch           ...       63
Average number of grid points per atom       ...     4373

--------------------
COSX GRID GENERATION
--------------------

GRIDX 1
-------
General Integration Accuracy     IntAcc      ... 3.816
Radial Grid Type                 RadialGrid  ... OptM3 with GC (2021)
Angular Grid (max. ang.)         AngularGrid ... 1 (Lebedev-50)
Angular grid pruning method      GridPruning ... 4 (adaptive)
Weight generation scheme         WeightScheme... mBecke (2022)
Basis function cutoff            BFCut       ... 1.0000e-11
Integration weight cutoff        WCut        ... 1.0000e-14
Partially contracted basis set               ... on
Rotationally invariant grid construction     ... off
Angular grids for H and He will be reduced by one unit

Total number of grid points                  ...    39810
Total number of batches                      ...      348
Average number of points per batch           ...      114
Average number of grid points per atom       ...      569
UseSFitting                                  ... on

GRIDX 2
-------
General Integration Accuracy     IntAcc      ... 4.020
Radial Grid Type                 RadialGrid  ... OptM3 with GC (2021)
Angular Grid (max. ang.)         AngularGrid ... 2 (Lebedev-110)
Angular grid pruning method      GridPruning ... 4 (adaptive)
Weight generation scheme         WeightScheme... mBecke (2022)
Basis function cutoff            BFCut       ... 1.0000e-11
Integration weight cutoff        WCut        ... 1.0000e-14
Partially contracted basis set               ... on
[...]
      pz      :     0.017201  p :     0.039272
      px      :     0.007170
      py      :     0.014902

 69 H s       :     0.888484  s :     0.888484
      pz      :     0.008097  p :     0.040103
      px      :     0.014837
      py      :     0.017169



                      *****************************
                      * MAYER POPULATION ANALYSIS *
                      *****************************

  NA   - Mulliken gross atomic population
  ZA   - Total nuclear charge
  QA   - Mulliken gross atomic charge
  VA   - Mayer's total valence
  BVA  - Mayer's bonded valence
  FA   - Mayer's free valence

  ATOM       NA         ZA         QA         VA         BVA        FA
  0 C      6.1110     6.0000    -0.1110     3.9315     3.9315    -0.0000
  1 C      6.1863     6.0000    -0.1863     3.9107     3.9107     0.0000
  2 C      5.9526     6.0000     0.0474     3.8759     3.8759     0.0000
  3 C      5.8651     6.0000     0.1349     4.0089     4.0089     0.0000
  4 C      6.1022     6.0000    -0.1022     3.8740     3.8740     0.0000
  5 C      6.1418     6.0000    -0.1418     3.9584     3.9584     0.0000
  6 H      0.8899     1.0000     0.1101     0.9590     0.9590    -0.0000
  7 H      0.8777     1.0000     0.1223     0.9761     0.9761     0.0000
  8 H      0.8942     1.0000     0.1058     0.9668     0.9668    -0.0000
  9 H      0.8863     1.0000     0.1137     0.9582     0.9582     0.0000
 10 B      4.9095     5.0000     0.0905     3.5389     3.5389     0.0000
 11 H      0.9855     1.0000     0.0145     0.9626     0.9626     0.0000
 12 C      6.4118     6.0000    -0.4118     3.7562     3.7562    -0.0000
 13 C      6.0562     6.0000    -0.0562     3.9503     3.9503    -0.0000
 14 C      6.1006     6.0000    -0.1006     3.9309     3.9309    -0.0000
 15 H      0.8550     1.0000     0.1450     0.9631     0.9631     0.0000
 16 C      6.3257     6.0000    -0.3257     3.8727     3.8727    -0.0000
 17 H      0.8657     1.0000     0.1343     0.9564     0.9564    -0.0000
 18 H      0.8353     1.0000     0.1647     0.9526     0.9526    -0.0000
 19 H      1.0322     1.0000    -0.0322     0.9793     0.9793     0.0000
 20 B      4.4242     5.0000     0.5758     3.3974     3.3974     0.0000
 21 O      8.4710     8.0000    -0.4710     2.0945     2.0945    -0.0000
 22 O      8.4901     8.0000    -0.4901     2.0590     2.0590    -0.0000
 23 C      5.8002     6.0000     0.1998     3.8321     3.8321     0.0000
 24 C      5.7825     6.0000     0.2175     3.8191     3.8191     0.0000
 25 C      6.3538     6.0000    -0.3538     3.8733     3.8733     0.0000
 26 H      0.8627     1.0000     0.1373     0.9572     0.9572    -0.0000
 27 H      0.8832     1.0000     0.1168     0.9567     0.9567    -0.0000
 28 H      0.8679     1.0000     0.1321     0.9601     0.9601    -0.0000
 29 C      6.3440     6.0000    -0.3440     3.8616     3.8616    -0.0000
 30 H      0.8617     1.0000     0.1383     0.9585     0.9585    -0.0000
 31 H      0.8713     1.0000     0.1287     0.9708     0.9708    -0.0000
 32 H      0.8860     1.0000     0.1140     0.9575     0.9575    -0.0000
 33 C      6.3515     6.0000    -0.3515     3.8720     3.8720    -0.0000
 34 H      0.8672     1.0000     0.1328     0.9577     0.9577    -0.0000
 35 H      0.8816     1.0000     0.1184     0.9564     0.9564    -0.0000
 36 H      0.8659     1.0000     0.1341     0.9606     0.9606     0.0000
 37 C      6.3526     6.0000    -0.3526     3.8643     3.8643    -0.0000
 38 H      0.8812     1.0000     0.1188     0.9569     0.9569    -0.0000
 39 H      0.8638     1.0000     0.1362     0.9583     0.9583    -0.0000
 40 H      0.8680     1.0000     0.1320     0.9612     0.9612     0.0000
 41 N      7.5060     7.0000    -0.5060     2.8766     2.8766    -0.0000
 42 C      5.8480     6.0000     0.1520     3.9117     3.9117     0.0000
 43 C      5.8506     6.0000     0.1494     3.9158     3.9158    -0.0000
 44 S     15.7052    16.0000     0.2948     2.4815     2.4815     0.0000
 45 C      6.1860     6.0000    -0.1860     3.8546     3.8546     0.0000
 46 C      6.3329     6.0000    -0.3329     3.8701     3.8701     0.0000
 47 C      6.3272     6.0000    -0.3272     3.8445     3.8445    -0.0000
 48 C      6.2311     6.0000    -0.2311     3.8975     3.8975    -0.0000
 49 H      0.8863     1.0000     0.1137     0.9608     0.9608     0.0000
 50 H      0.9038     1.0000     0.0962     0.9591     0.9591     0.0000
 51 C      6.1866     6.0000    -0.1866     3.8570     3.8570    -0.0000
 52 H      0.8890     1.0000     0.1110     0.9534     0.9534    -0.0000
 53 H      0.9015     1.0000     0.0985     0.9570     0.9570    -0.0000
 54 H      0.8869     1.0000     0.1131     0.9592     0.9592     0.0000
 55 H      0.9032     1.0000     0.0968     0.9588     0.9588    -0.0000
 56 C      6.3274     6.0000    -0.3274     3.8444     3.8444     0.0000
 57 C      6.3384     6.0000    -0.3384     3.8681     3.8681     0.0000
 58 H      0.8956     1.0000     0.1044     0.9612     0.9612    -0.0000
 59 H      0.8779     1.0000     0.1221     0.9626     0.9626     0.0000
 60 H      0.8793     1.0000     0.1207     0.9665     0.9665     0.0000
 61 H      0.8954     1.0000     0.1046     0.9607     0.9607    -0.0000
 62 H      0.8987     1.0000     0.1013     0.9635     0.9635     0.0000
 63 H      0.8898     1.0000     0.1102     0.9657     0.9657     0.0000
 64 H      0.8744     1.0000     0.1256     0.9618     0.9618    -0.0000
 65 H      0.8807     1.0000     0.1193     0.9637     0.9637     0.0000
 66 H      0.8973     1.0000     0.1027     0.9618     0.9618     0.0000
 67 H      0.8993     1.0000     0.1007     0.9636     0.9636    -0.0000
 68 H      0.8958     1.0000     0.1042     0.9608     0.9608     0.0000
 69 H      0.8907     1.0000     0.1093     0.9655     0.9655    -0.0000

  Mayer bond orders larger than 0.100000
B(  0-C ,  1-C ) :   1.4359 B(  0-C ,  5-C ) :   1.4494 B(  0-C ,  6-H ) :   0.9507 
B(  1-C ,  2-C ) :   1.3809 B(  1-C ,  7-H ) :   0.9235 B(  2-C ,  3-C ) :   1.4195 
B(  2-C , 10-B ) :   0.9906 B(  3-C ,  4-C ) :   1.4030 B(  3-C , 41-N ) :   0.9717 
B(  4-C ,  5-C ) :   1.4284 B(  4-C ,  8-H ) :   0.9399 B(  5-C ,  9-H ) :   0.9474 
B( 10-B , 11-H ) :   0.3671 B( 10-B , 12-C ) :   0.7766 B( 10-B , 19-H ) :   0.9310 
B( 10-B , 20-B ) :   0.3007 B( 11-H , 20-B ) :   0.5670 B( 12-C , 13-C ) :   1.5342 
B( 12-C , 16-C ) :   0.1015 B( 12-C , 20-B ) :   0.1993 B( 12-C , 44-S ) :   1.1074 
B( 13-C , 14-C ) :   1.3121 B( 13-C , 15-H ) :   0.9347 B( 14-C , 16-C ) :   1.5887 
B( 14-C , 17-H ) :   0.9459 B( 16-C , 18-H ) :   0.9362 B( 16-C , 44-S ) :   1.1822 
B( 20-B , 21-O ) :   1.1356 B( 20-B , 22-O ) :   1.0896 B( 21-O , 23-C ) :   0.8637 
B( 22-O , 24-C ) :   0.8495 B( 23-C , 24-C ) :   0.9569 B( 23-C , 25-C ) :   1.0076 
B( 23-C , 29-C ) :   0.9930 B( 24-C , 33-C ) :   1.0064 B( 24-C , 37-C ) :   0.9945 
B( 25-C , 26-H ) :   0.9570 B( 25-C , 27-H ) :   0.9556 B( 25-C , 28-H ) :   0.9542 
B( 29-C , 30-H ) :   0.9541 B( 29-C , 31-H ) :   0.9460 B( 29-C , 32-H ) :   0.9529 
B( 33-C , 34-H ) :   0.9573 B( 33-C , 35-H ) :   0.9555 B( 33-C , 36-H ) :   0.9537 
B( 37-C , 38-H ) :   0.9529 B( 37-C , 39-H ) :   0.9556 B( 37-C , 40-H ) :   0.9570 
B( 41-N , 42-C ) :   0.9440 B( 41-N , 43-C ) :   0.9464 B( 42-C , 51-C ) :   0.9817 
B( 42-C , 56-C ) :   0.9733 B( 42-C , 57-C ) :   1.0004 B( 43-C , 45-C ) :   0.9820 
B( 43-C , 46-C ) :   1.0012 B( 43-C , 47-C ) :   0.9724 B( 45-C , 48-C ) :   0.9979 
B( 45-C , 49-H ) :   0.9508 B( 45-C , 50-H ) :   0.9538 B( 46-C , 64-H ) :   0.9490 
B( 46-C , 65-H ) :   0.9559 B( 46-C , 66-H ) :   0.9604 B( 47-C , 67-H ) :   0.9587 
B( 47-C , 68-H ) :   0.9582 B( 47-C , 69-H ) :   0.9587 B( 48-C , 51-C ) :   0.9984 
B( 48-C , 52-H ) :   0.9590 B( 48-C , 53-H ) :   0.9553 B( 51-C , 54-H ) :   0.9524 
B( 51-C , 55-H ) :   0.9537 B( 56-C , 61-H ) :   0.9581 B( 56-C , 62-H ) :   0.9588 
B( 56-C , 63-H ) :   0.9584 B( 57-C , 58-H ) :   0.9595 B( 57-C , 59-H ) :   0.9562 
B( 57-C , 60-H ) :   0.9529 

-------
TIMINGS
-------

Total SCF time: 0 days 0 hours 0 min 52 sec 

Total time                  ....      52.013 sec
Sum of individual times     ....      49.164 sec  ( 94.5%)

SCF preparation             ....       0.384 sec  (  0.7%)
Fock matrix formation       ....      47.595 sec  ( 91.5%)
  Startup                   ....       0.033 sec  (  0.1% of F)
  Split-RI-J                ....       2.529 sec  (  5.3% of F)
  Chain of spheres X        ....      45.397 sec  ( 95.4% of F)
  XC integration            ....       1.971 sec  (  4.1% of F)
    XC Preparation          ....       0.000 sec  (  0.0% of XC)
    Basis function eval.    ....       0.607 sec  ( 30.8% of XC)
    Density eval.           ....       0.596 sec  ( 30.2% of XC)
    XC-Functional eval.     ....       0.078 sec  (  4.0% of XC)
    XC-Potential eval.      ....       0.318 sec  ( 16.1% of XC)
Diagonalization             ....       0.000 sec  (  0.0%)
Density matrix formation    ....       0.114 sec  (  0.2%)
Total Energy calculation    ....       0.041 sec  (  0.1%)
Population analysis         ....       0.186 sec  (  0.4%)
Orbital Transformation      ....       0.137 sec  (  0.3%)
Orbital Orthonormalization  ....       0.000 sec  (  0.0%)
DIIS solution               ....       0.163 sec  (  0.3%)
SOSCF solution              ....       0.544 sec  (  1.0%)
Finished LeanSCF after  52.1 sec

Maximum memory used throughout the entire LEANSCF-calculation: 102.1 MB


-------------------------------------------------------------------------------
                          DFT DISPERSION CORRECTION                            
                                                                               
                              DFTD3 V3.1  Rev 1                                
                              USING zero damping                               
-------------------------------------------------------------------------------
The omegaB97X-D3 functional is recognized. Fit by Chai et al.
Active option DFTDOPT                   ...         3   

molecular C6(AA) [au] = 45781.257788 


            DFT-D V3
 parameters
 s6 scaling factor         :     1.0000 
 rs6 scaling factor        :     1.2810 
 s8 scaling factor         :     1.0000 
 rs8 scaling factor        :     1.0940 
 Damping factor alpha6     :    14.0000 
 Damping factor alpha8     :    16.0000 
 ad hoc parameters k1-k3   :    16.0000     1.3333    -4.0000 

 Edisp/kcal,au: -31.542275514861  -0.050265810245 
 E6   /kcal   : -15.029970835 
 E8   /kcal   : -16.512304679 
 % E8         :  52.349757301 

-------------------------   ----------------
Dispersion correction           -0.050265810
-------------------------   ----------------


-------------------------   --------------------
FINAL SINGLE POINT ENERGY     -1629.055546703943
-------------------------   --------------------

                                *** OPTIMIZATION RUN DONE ***



           ************************************************************
           *        Program running with 20 parallel MPI-processes    *
           *              working on a common directory               *
           ************************************************************

------------------------------------------------------------------------------
                              ORCA PROPERTY CALCULATIONS
------------------------------------------------------------------------------

GBWName                                 ... input.gbw
Number of atoms                         ...     70
Number of basis functions               ...    633
Max core memory                         ...   4096 MB

Electric properties:
Dipole moment                           ... YES
Quadrupole moment                       ...  NO
Static polarizability (Dipole/Dipole)   ...  NO
Static polarizability (Dipole/Quad.)    ...  NO
Static polarizability (Quad./Quad.)     ...  NO
Static polarizability (Velocity)        ...  NO
Static hyperpolarizability              ...  NO

Atomic electric properties:
Dipole moment                           ...  NO
Quadrupole moment                       ...  NO
Static polarizability                   ...  NO

Choice of electric origin               ... Center of mass
Position of electric origin             ...     1.927367     0.403059     1.875503

General magnetic properties:
Magnetizability                         ...  NO

EPR properties:
g-Tensor (aka g-matrix)                 ...  NO
Zero-Field splitting spin-orbit         ...  NO
Zero-field splitting spin-spin          ...  NO
Hyperfine couplings                     ...  NO (   0 nuclei)
Quadrupole couplings                    ...  NO (   0 nuclei)
Contact density                         ...  NO (   0 nuclei)

NMR properties:
Chemical shifts                         ...  NO (   0 nuclei)
Spin-rotation constants                 ...  NO (   0 nuclei)
Spin-spin couplings                     ...  NO (   0 nuclei,    0 pairs)

Choice of magnetic origin               ... GIAO
Position of magnetic origin             ...     0.000000     0.000000     0.000000

Properties with geometric perturbations:
SCF Hessian                             ...  NO
IR spectrum                             ...  NO
VCD spectrum                            ...  NO
X-ray spectroscopy properties:
SCF XES/XAS/RIXS spectra                ...  NO

SCF SOC stabilization energy            ...  NO
Diagonal Born-Oppenheimer correction    ...  NO

-------------
DIPOLE MOMENT
-------------

Method             : SCF
Type of density    : Electron Density
Multiplicity       :   1
Irrep              :   0
Energy             : -1629.0052808936984547 Eh
Basis              : AO
                                X                 Y                 Z
Electronic contribution:      7.100369417      -4.874403497       9.218643536
Nuclear contribution   :     -5.991909685       3.886300480      -8.411119942
                        -----------------------------------------
Total Dipole Moment    :      1.108459732      -0.988103016       0.807523594
                        -----------------------------------------
Magnitude (a.u.)       :      1.690303199
Magnitude (Debye)      :      4.296409290



--------------------
Rotational spectrum 
--------------------
 
Rotational constants in cm-1:             0.007839             0.003215             0.002936 
Rotational constants in MHz :           235.008752            96.391145            88.023751 

Dipole components along the rotational axes: 
x,y,z [a.u.] :     1.640151     0.164742    -0.374017 
x,y,z [Debye]:     4.168933     0.418742    -0.950675 

 

Dipole moment calculation done in   0.1 sec 

Maximum memory used throughout the entire PROP-calculation: 52.7 MB

--------------------------------
SUGGESTED CITATIONS FOR THIS RUN
--------------------------------

Below you find a list of papers that are relevant to this ORCA run
We neither can nor want to force you to cite these papers, but we appreciate if you do
You receive ORCA, which is the product of decades of hard work by many enthusiastic individuals, for free
The only thing we kindly ask in return is that you cite our papers,
We deeply appreciate it, if you show your appreciation for ORCA by not just citing the generic ORCA reference.

Please note that relegating all ORCA citations to the supporting information does *not* help us.
SI sections are not indexed - citations you put there will not count into any citation statistics
But we need these citations in order to attract the funding resources that allow us to do what we are doing

Therefore, if you are a happy ORCA user, please consider citing a few of the papers listed below in the main body of your paper

In addition to the list printed below, the program has created the file input.bibtex that contains the list in bibtex format
You can import this file easily into all common literature databanks and citation aid programs


List of essential papers. We consider these as the minimum necessary citations

  1. Neese, F.
     Software update: the ORCA program system, version 6.0
     WIRES Comput. Molec. Sci. 2025 15(1), e70019
     doi.org/10.1002/wcms.7019

List of papers to cite with high priority. The work reported in these papers was absolutely
necessary for this run to complete.
Our perspective: the developers of density functionals and basis sets usually get cited in chemistry papers
Good! But without the algorithms to do something with them, the functionals or basis sets would not do anything.
Hence, in our opinion, the algorithm design and method developments papers are equally worthy of getting cited

  1. Neese, F.
     An improvement of the resolution of the identity approximation for the formation of the Coulomb matrix
     J. Comp. Chem. 2003 24(14), 1740-1747
     doi.org/10.1002/jcc.10318
  2. Neese, F.; Wennmohs, F.; Hansen, A.; Becker, U.
     Efficient, approximate and parallel Hartree-Fock and hybrid DFT calculations. A 'chain-of-spheres' algorithm for the Hartree-Fock exchange
     Chem. Phys. 2009 356(1-3), 98-109
     doi.org/10.1016/j.chemphys.2008.10.036
  3. Grimme, S.; Antony, J.; Ehrlich, S.; Krieg, H.
     A consistent and accurate ab initio parametrization of density functional dispersion correction (DFT-D) for the 94 elements H-Pu
     J. Chem. Phys. 2010 132 , 154104
     doi.org/10.1063/1.3382344
  4. Helmich-Paris, B.; de Souza, B.; Neese, F.; Izsák, R.
     An improved chain of spheres for exchange algorithm
     J. Chem. Phys. 2021 155(10), 104109
     doi.org/10.1063/5.0058766
  5. Neese, F.
     The SHARK Integral Generation and Digestion System
     J. Comp. Chem. 2022 44(3), 381
     doi.org/10.1002/jcc.26942

List of suggested additional citations. These are papers that are important in the 'surrounding' of 
of this run, or papers that preceded the highly important papers. If you like your results we are grateful for a citation.

  1. Izsak, R.; Neese, F.
     An overlap fitted chain of spheres exchange method
     J. Chem. Phys. 2011 135 , 144105
     doi.org/10.1063/1.3646921
  2. Izsak, R.; Hansen, A.; Neese, F.
     The resolution of identity and chain of spheres approximations for the LPNO-CCSD singles Fock term
     Molec. Phys. 2012 110 , 2413-2417
     doi.org/10.1080/00268976.2012.687466
  3. Neese, F.
     The ORCA program system
     WIRES Comput. Molec. Sci. 2012 2(1), 73-78
     doi.org/10.1002/wcms.81
  4. Izsak, R.; Neese, F.; Klopper, W.
     Robust fitting techniques in the chain of spheres approximation to the Fock exchange: The role of the complementary space
     J. Chem. Phys. 2013 139 , 
     doi.org/10.1063/1.4819264
  5. Neese, F.
     Software update: the ORCA program system, version 4.0
     WIRES Comput. Molec. Sci. 2018 8(1), 1-6
     doi.org/10.1002/wcms.1327
  6. Neese, F.; Wennmohs, F.; Becker, U.; Riplinger, C.
     The ORCA quantum chemistry program package
     J. Chem. Phys. 2020 152(22), 224108
     doi.org/10.1063/5.0004608
  7. Neese, F.
     Software update: The ORCA program system—Version 5.0
     WIRES Comput. Molec. Sci. 2022 12(1), e1606
     doi.org/10.1002/wcms.1606

List of optional additional citations

  1. Neese, F.
     Approximate second-order SCF convergence for spin unrestricted wavefunctions
     Chem. Phys. Lett. 2000 325(1-3), 93-98
     doi.org/10.1016/s0009-2614(00)00662-x

Timings for individual modules:

Sum of individual times          ...     1310.076 sec (=  21.835 min)
Startup calculation              ...       57.775 sec (=   0.963 min)   4.4 %
SCF iterations                   ...      944.623 sec (=  15.744 min)  72.1 %
Property calculations            ...        0.597 sec (=   0.010 min)   0.0 %
SCF Gradient evaluation          ...      306.196 sec (=   5.103 min)  23.4 %
Geometry relaxation              ...        0.884 sec (=   0.015 min)   0.1 %
                             ****ORCA TERMINATED NORMALLY****
TOTAL RUN TIME: 0 days 0 hours 21 minutes 55 seconds 354 msec
