
                                 *****************
                                 * O   R   C   A *
                                 *****************

                                            #,                                       
                                            ###                                      
                                            ####                                     
                                            #####                                    
                                            ######                                   
                                           ########,                                 
                                     ,,################,,,,,                         
                               ,,#################################,,                 
                          ,,##########################################,,             
                       ,#########################################, ''#####,          
                    ,#############################################,,   '####,        
                  ,##################################################,,,,####,       
                ,###########''''           ''''###############################       
              ,#####''   ,,,,##########,,,,          '''####'''          '####       
            ,##' ,,,,###########################,,,                        '##       
           ' ,,###''''                  '''############,,,                           
         ,,##''                                '''############,,,,        ,,,,,,###''
      ,#''                                            '''#######################'''  
     '                                                          ''''####''''         
             ,#######,   #######,   ,#######,      ##                                
            ,#'     '#,  ##    ##  ,#'     '#,    #''#        ,####,   ,####,        
            ##       ##  ##   ,#'  ##            #'  '#       #'       #'  '#        
            ##       ##  #######   ##           ,######,      #####,   #    #        
            '#,     ,#'  ##    ##  '#,     ,#' ,#      #,     #,   #   #,  ,#        
             '#######'   ##     ##  '#######'  #'      '#     '####' # '####'        



                #########################################################
                #                        -***-                          #
                #          Department of theory and spectroscopy        #
                #                                                       #
                #                      Frank Neese                      #
                #                                                       #
                #     Directorship, Architecture, Infrastructure        #
                #                    SHARK, DRIVERS                     #
                #        Core code/Algorithms in most modules           #
                #                                                       #
                #        Max Planck Institute fuer Kohlenforschung      #
                #                Kaiser Wilhelm Platz 1                 #
                #                 D-45470 Muelheim/Ruhr                 #
                #                      Germany                          #
                #                                                       #
                #                  All rights reserved                  #
                #                        -***-                          #
                #########################################################


                         Program Version 6.0.1  -  RELEASE   -


 With contributions from (in alphabetic order):
[Max-Planck-Institut fuer Kohlenforschung]                               
  Daniel Aravena         : Magnetic Suceptibility                        
  Michael Atanasov       : Ab Initio Ligand Field Theory (pilot matlab implementation)
  Alexander A. Auer      : GIAO ZORA, VPT2 properties, NMR spectrum      
  Ute Becker             : All parallelization in ORCA, NUMFREQ, NUMCALC 
  Giovanni Bistoni       : ED, misc. LED, open-shell LED, HFLD           
  Martin Brehm           : Molecular dynamics                            
  Dmytro Bykov           : pre 5.0 version of the SCF Hessian            
  Marcos Casanova-Páez   : Triplet and SCS-CIS(D). UHF-(DLPNO)-IP/EA/STEOM-CCSD. UHF-CVS-IP/STEOM-CCSD   
  Vijay G. Chilkuri      : MRCI spin determinant printing, contributions to CSF-ICE 
  Pauline Colinet        : FMM embedding                                 
  Dipayan Datta          : RHF DLPNO-CCSD density                        
  Achintya Kumar Dutta   : EOM-CC, STEOM-CC                              
  Nicolas Foglia         : Exact transition moments, OPA infrastructure, MCD improvements    
  Dmitry Ganyushin       : Spin-Orbit,Spin-Spin,Magnetic field MRCI      
  Miquel Garcia-Rates    : C-PCM and meta-GGA Hessian, CCSD/C-PCM, Gaussian charge scheme 
  Tiago L. C. Gouveia    : GS-ROHF, GS-ROCIS                             
  Yang Guo               : DLPNO-NEVPT2, F12-NEVPT2, CIM, IAO-localization        
  Andreas Hansen         : Spin unrestricted coupled pair/coupled cluster methods 
  Ingolf Harden          : AUTO-CI MPn and infrastructure                
  Benjamin Helmich-Paris : MC-RPA, TRAH-(SCF,CASSCF), AVAS, COSX integrals, SCF dyn. polar. 
  Lee Huntington         : MR-EOM, pCC                                   
  Robert Izsak           : Overlap fitted RIJCOSX, COSX-SCS-MP3, EOM     
  Riya Kayal             : Wick's Theorem for AUTO-CI, AUTO-CI UHF-CCSDT 
  Emily Kempfer          : AUTO-CI, RHF CISDT and CCSDT                  
  Christian Kollmar      : KDIIS, OOCD, Brueckner-CCSD(T), CCSD density, CASPT2, CASPT2-K, improved NEVPT2 
  Axel Koslowski         : Symmetry handling                             
  Simone Kossmann        : meta-GGA functionals, TD-DFT gradient, OOMP2, (MP2 Hessian; deprecated post 5.0) 
  Lucas Lang             : DCDCAS                                        
  Marvin Lechner         : AUTO-CI (C++ implementation), FIC-MRCC        
  Spencer Leger          : CASSCF response                               
  Dagmar Lenk            : GEPOL surface, SMD, ORCA-2-JSON               
  Dimitrios Liakos       : Extrapolation schemes; Compound Job, initial MDCI parallelization 
  Dimitrios Manganas     : Further ROCIS development; embedding schemes. LFT, Crystal Embedding 
  Dimitrios Pantazis     : SARC Basis sets                               
  Anastasios Papadopoulos: AUTO-CI, single reference methods and gradients 
  Taras Petrenko         : pre 6.0 DFT Hessian and TD-DFT gradient, (ASA, deprecated), ECA, 1-Electron XAS/XES, NRVS 
  Peter Pinski           : DLPNO-MP2, DLPNO-MP2 Gradient                 
  Christoph Reimann      : Effective Core Potentials                     
  Marius Retegan         : Local ZFS, SOC                                
  Christoph Riplinger    : Optimizer, TS searches, QM/MM, DLPNO-CCSD(T), (RO)-DLPNO pert. Triples 
  Michael Roemelt        : Original ROCIS implementation                 
  Masaaki Saitow         : Open-shell DLPNO-CCSD energy and density      
  Barbara Sandhoefer     : DKH picture change effects                    
  Kantharuban Sivalingam : CASSCF convergence/infrastructure, NEVPT2 and variants, FIC-MRCI 
  Bernardo de Souza      : ESD, SOC TD-DFT                               
  Georgi L. Stoychev     : AutoAux, RI-MP2 NMR, DLPNO-MP2 response, X2C  
  Van Anh Tran           : RI-MP2 g-tensors                              
  Willem Van den Heuvel  : Paramagnetic NMR                              
  Zikuan Wang            : NOTCH, Electric field optimization            
  Frank Wennmohs         : Technical directorship and infrastructure     
  Hang Xu                : AUTO-CI-Response properties                   
                                                                         
[FACCTs GmbH]                                                            
  Markus Bursch, Miquel Garcia-Rates, Christoph Riplinger, Bernardo de Souza, Georgi L. Stoychev 
                                                                 
  APM, Basis sets (HGBS, AHGBS, def-TZVP (Ac-Lr), def2-XVPD (La-Lu)), CI-OPT, improved COSX, DLPNO-Multilevel,           
  DOCKER, DRACO, updates on ESD, GOAT, IRC, LR-CPCM, MBIS, meta-GGA TD-DFT gradient, ML-optimized integration grids, 
  MM, NACMEs, nearIR, NEB, NEB-TS, NL-DFT gradient (VV10), 2- and 3-layer-ONIOM, interface openCOSMO-RS, QMMM,   
  Crystal-QMMM, SF, symmetry and pop. for TD-DFT, r2SCAN hybrids, SOLVATOR                                   
                                                                         
[Other institutions]                                                     
  V. Asgeirsson          : NEB                                           
  Christoph Bannwarth    : sTDA-DFT, sTD-DFT, PBEh-3c, B97-3c, D3        
  Sebastian Ehlert       : rSCAN, r2SCAN, r2SCAN-3c, D4, dhf basis sets  
  Marvin Friede          : D4 for Fr, Ra, Ac-Lr                          
  Lars Goerigk           : TD-DFT with DH, B97 family of functionals     
  Stefan Grimme          : VdW corrections, initial TS optimization, DFT functionals, gCP, sTDA/sTD-DF 
  Waldemar Hujo          : DFT-NL                                        
  H. Jonsson             : NEB                                           
  Holger Kruse           : gCP                                           
  Marcel Mueller         : wB97X-3c, vDZP basis set                      
  Hagen Neugebauer       : wr2SCAN                                       
  Tobias Risthaus        : range-separated hybrid DFT                    
  Lukas Wittmann         : regularized MP2, r2SCAN double-hybrids, wr2SCAN        
                                                                         
We gratefully acknowledge several colleagues who have allowed us to      
interface, adapt or use parts of their codes:                            
  Ed Valeev, F. Pavosevic, A. Kumar             : LibInt (2-el integral package), F12 methods 
  Garnet Chan, S. Sharma, J. Yang, R. Olivares  : DMRG                   
  Ulf Ekstrom                                   : XCFun DFT Library      
  Mihaly Kallay                                 : mrcc  (arbitrary order and MRCC methods)
  Frank Weinhold                                : gennbo (NPA and NBO analysis)           
  Simon Mueller                                 : openCOSMO-RS                            
  Christopher J. Cramer and Donald G. Truhlar   : smd solvation model                     
  S Lehtola, MJT Oliveira, MAL Marques          : LibXC Library                           
  Liviu Ungur et al                             : ANISO software                          


 Your calculation uses the libint2 library for the computation of 2-el integrals
 For citations please refer to: http://libint.valeyev.net

 Your ORCA version has been built with support for libXC version: 6.2.2
 For citations please refer to: https://libxc.gitlab.io

 This ORCA versions uses:
   CBLAS   interface :  Fast vector & matrix operations
   LAPACKE interface :  Fast linear algebra routines
   SCALAPACK package :  Parallel linear algebra routines
   Shared memory     :  Shared parallel matrices
   BLAS/LAPACK       :  OpenBLAS 0.3.27  USE64BITINT DYNAMIC_ARCH NO_AFFINITY Zen SINGLE_THREADED
        Core in use  :  Zen
   Copyright (c) 2011-2014, The OpenBLAS Project


NOTE: MaxCore=2560 MB was set to SCF,MP2,MDCI,CIPSI,MRCI and CIS
      => If you want to overwrite this, your respective input block should be placed after the MaxCore statement
Your calculation utilizes the atom-pairwise dispersion correction
with the zero-damping scheme (D30)


XCFun DFT library Copyright 2009-2010 Ulf Ekstrom and contributors.
See http://admol.org/xcfun for more information.
This is free software; see the source code for copying conditions.
There is ABSOLUTELY NO WARRANTY; not even for MERCHANTABILITY or FITNESS FOR A PARTICULAR PURPOSE.
For details see the documentation.
Scientific users of this library should cite U. Ekstrom, L. Visscher, R. Bast, A. J. Thorvaldsen and K. Ruud;
J.Chem.Theor.Comp. 2010, DOI: 10.1021/ct100117s
XCFun Version 0.99 

Warning: RI is on but no J-basis has been assigned. Assigning Def2/J (nothing to worry about!)
================================================================================

----- Orbital basis set information -----
Your calculation utilizes the basis: 6-31G**
   H-He, Li-Ne : W. J. Hehre, R. Ditchfield and J.A. Pople, J. Chem. Phys. 56, 2257 (1972).
                 Note: He and Ne are unpublished basis sets taken from the Gaussian program.
                 Note: Li and B from J. D. Dill and J. A. Pople, J. Chem. Phys. 62, 2921 (1975).
   Na - Ar     : M. M. Francl, W. J. Pietro, W. J. Hehre, J. S. Binkley, M. S. Gordon, 
                 D. J. DeFrees and J. A. Pople, J. Chem. Phys. 77, 3654 (1982).
   K - Zn      : V. A. Rassolov, J. A. Pople, M. A. Ratner, and T. L. Windus, J. Chem. Phys. 109, 1223 (1998).

----- AuxJ basis set information -----
Your calculation utilizes the auxiliary basis: def2/J
   F. Weigend, Phys. Chem. Chem. Phys. 8, 1057 (2006).

================================================================================
                                        WARNINGS
                       Please study these warnings very carefully!
================================================================================


WARNING: Geometry Optimization
  ===> : Switching off AutoStart
         For restart on a previous wavefunction, please use MOREAD

================================================================================
                                       INPUT FILE
================================================================================
NAME = input.inp
|  1> # Automatically generated ORCA input
|  2> 
|  3> # Number of cores
|  4> %pal nprocs 24 end
|  5> # RAM per core
|  6> %maxcore 2560
|  7> 
|  8> ! wB97X-D3 
|  9> ! 6-31G** 
| 10> ! TightSCF 
| 11> ! Freq 
| 12> ! NoSym 
| 13> ! Opt 
| 14> 
| 15> %geom
| 16>   Calc_Hess true
| 17> end
| 18> 
| 19> 
| 20> *xyz 0 1 
| 21> H         1.30976347      0.10938528      2.67300498
| 22> C         2.09974655      0.08249033      1.92889678
| 23> C         2.78454919      1.24582391      1.60527549
| 24> C         2.43163040     -1.10923764      1.29431717
| 25> C         3.81230169      1.25990721      0.65666918
| 26> H         2.51512019      2.18153683      2.08808292
| 27> C         3.43916145     -1.12236288      0.33749353
| 28> H         1.90796510     -2.02852310      1.53749084
| 29> C         4.12883079      0.04915394      0.01248867
| 30> H         3.68915059     -2.05252347     -0.15886290
| 31> B         4.54486316      2.65848794      0.39901137
| 32> H         5.35000607      1.73785460     -0.74983228
| 33> H         5.49024752      2.56285199     -0.65803512
| 34> C         3.64269078      3.83108744     -0.14888412
| 35> C         2.36564196      3.79051509     -0.68723888
| 36> H         8.49573407     -0.60448568     -1.34557561
| 37> H         7.72645941      0.97500143     -1.46803740
| 38> H         5.54683508      0.19533076     -4.38154994
| 39> H         6.01299997      1.43641377     -3.22303377
| 40> H         7.95037562     -0.00933352     -3.71720668
| 41> H         7.06405758     -1.44187125     -3.23028610
| 42> N         5.17251732      0.07758417     -0.99425485
| 43> C         6.86950073      0.02015631      0.79149249
| 44> H         7.87498336     -0.32522380      1.04910224
| 45> H         6.87654881      1.11281499      0.79386238
| 46> H         6.18320799     -0.31451320      1.57289654
| 47> C         6.48465409     -2.07996471     -0.45580464
| 48> C         1.98563318      5.10215561     -1.06089899
| 49> H         1.77338297      2.88976305     -0.78421559
| 50> C         3.04284429      5.92181128     -0.74080117
| 51> H         1.05279913      5.41513939     -1.50918156
| 52> H         3.16758950      6.99016830     -0.85880982
| 53> N         4.03495910      5.15865445     -0.19238321
| 54> C         5.30260157      5.67475616      0.27644612
| 55> H         5.43574276      5.47985299      1.34399098
| 56> H         6.13779390      5.21867396     -0.26382620
| 57> H         5.33215153      6.75333302      0.11038080
| 58> C         6.48199992     -0.54242323     -0.58324865
| 59> C         4.69922972     -0.06742822     -2.41843251
| 60> C         7.55441668     -0.10195659     -1.59590802
| 61> C         5.85529344      0.35639381     -3.34237226
| 62> C         7.16304856     -0.36515538     -3.04405033
| 63> H         5.75156173     -2.42161727      0.27772967
| 64> H         6.29947230     -2.59823469     -1.39754978
| 65> H         7.46890239     -2.40265100     -0.09934648
| 66> C         4.19466524     -1.46703632     -2.82828976
| 67> H         3.84938381     -1.42390101     -3.86689151
| 68> H         4.95813495     -2.24431447     -2.77548715
| 69> H         3.34129243     -1.77892634     -2.22294916
| 70> C         3.53544143      0.90895740     -2.63645006
| 71> H         2.65083279      0.61358691     -2.06680601
| 72> H         3.79326138      1.93141934     -2.34836875
| 73> H         3.26754839      0.91570457     -3.69706736
| 74> H         5.38123705      2.95396733      1.22538473
| 75> *
| 76> 
| 77> 
| 78>                          ****END OF INPUT****
================================================================================

                       *****************************
                       * Geometry Optimization Run *
                       *****************************

Geometry optimization settings:
Update method            Update   .... BFGS
Choice of coordinates    CoordSys .... (2022) Redundant Internals
Initial Hessian          InHess   .... Almloef's Model
Max. no of cycles        MaxIter  .... 162

Convergence Tolerances:
Energy Change            TolE     ....  5.0000e-06 Eh
Max. Gradient            TolMAXG  ....  3.0000e-04 Eh/bohr
RMS Gradient             TolRMSG  ....  1.0000e-04 Eh/bohr
Max. Displacement        TolMAXD  ....  4.0000e-03 bohr
RMS Displacement         TolRMSD  ....  2.0000e-03 bohr
Strict Convergence                .... False

------------------------------------------------------------------------------
                        ORCA OPTIMIZATION COORDINATE SETUP
------------------------------------------------------------------------------

The optimization will be done in redundant internal coordinates (2022)
Making redundant internal coordinates   ...  (2022 redundants) done
Evaluating the initial hessian          ...  (Is done on the fly) done
Evaluating the coordinates              ...  done
Calculating the B-matrix                .... done
Calculating the G-matrix                .... done
Diagonalizing the G-matrix              .... done
Small eigenvalue found = 5.868e-03
Small eigenvalue found = 1.121e-02
Small eigenvalue found = 1.616e-02
Small eigenvalue found = 2.141e-02
Small eigenvalue found = 2.383e-02
Small eigenvalue found = 2.569e-02
The first mode is                       ....  158
The number of degrees of freedom        ....  156

    -----------------------------------------------------------------
                    Redundant Internal Coordinates


    -----------------------------------------------------------------
         Definition                    Initial Value    d2E/dq (diagonal element)
    -----------------------------------------------------------------
      1. B(C   1,H   0)                  1.0856         0.000000   
      2. B(C   2,C   1)                  1.3882         0.000000   
      3. B(C   3,C   1)                  1.3903         0.000000   
      4. B(C   4,C   2)                  1.3987         0.000000   
      5. B(H   5,C   2)                  1.0869         0.000000   
      6. B(C   6,C   3)                  1.3895         0.000000   
      7. B(H   7,C   3)                  1.0856         0.000000   
      8. B(C   8,C   4)                  1.4075         0.000000   
      9. B(C   8,C   6)                  1.3978         0.000000   
     10. B(H   9,C   6)                  1.0835         0.000000   
     11. B(B  10,C   4)                  1.5997         0.000000   
     12. B(H  11,B  10)                  1.6780         0.000000   
     13. B(H  12,B  10)                  1.4214         0.000000   
     14. B(H  12,H  11)                  0.8419         0.000000   
     15. B(C  13,B  10)                  1.5777         0.000000   
     16. B(C  14,C  13)                  1.3865         0.000000   
     17. B(N  21,C   8)                  1.4504         0.000000   
     18. B(N  21,H  11)                  1.6875         0.000000   
     19. B(H  23,C  22)                  1.0939         0.000000   
     20. B(H  24,C  22)                  1.0927         0.000000   
     21. B(H  25,C  22)                  1.0925         0.000000   
     22. B(C  27,C  14)                  1.4158         0.000000   
     23. B(H  28,C  14)                  1.0824         0.000000   
     24. B(C  29,C  27)                  1.3755         0.000000   
     25. B(H  30,C  27)                  1.0812         0.000000   
     26. B(H  31,C  29)                  1.0821         0.000000   
     27. B(N  32,C  29)                  1.3666         0.000000   
     28. B(N  32,C  13)                  1.3850         0.000000   
     29. B(C  33,N  32)                  1.4467         0.000000   
     30. B(H  34,C  33)                  1.0933         0.000000   
     31. B(H  35,C  33)                  1.0943         0.000000   
     32. B(H  36,C  33)                  1.0917         0.000000   
     33. B(C  37,C  22)                  1.5351         0.000000   
     34. B(C  37,N  21)                  1.5060         0.000000   
     35. B(C  37,C  26)                  1.5428         0.000000   
     36. B(C  38,N  21)                  1.5078         0.000000   
     37. B(C  39,C  37)                  1.5393         0.000000   
     38. B(C  39,H  16)                  1.0981         0.000000   
     39. B(C  39,H  15)                  1.0960         0.000000   
     40. B(C  40,C  38)                  1.5394         0.000000   
     41. B(C  40,H  18)                  1.0980         0.000000   
     42. B(C  40,H  17)                  1.0959         0.000000   
     43. B(C  41,C  40)                  1.5231         0.000000   
     44. B(C  41,C  39)                  1.5230         0.000000   
     45. B(C  41,H  20)                  1.0972         0.000000   
     46. B(C  41,H  19)                  1.0953         0.000000   
     47. B(H  42,C  26)                  1.0919         0.000000   
     48. B(H  43,C  26)                  1.0908         0.000000   
     49. B(H  44,C  26)                  1.0954         0.000000   
     50. B(C  45,C  38)                  1.5432         0.000000   
     51. B(H  46,C  45)                  1.0953         0.000000   
     52. B(H  47,C  45)                  1.0908         0.000000   
     53. B(H  48,C  45)                  1.0918         0.000000   
     54. B(C  49,C  38)                  1.5347         0.000000   
     55. B(H  50,C  49)                  1.0928         0.000000   
     56. B(H  51,C  49)                  1.0931         0.000000   
     57. B(H  52,C  49)                  1.0939         0.000000   
     58. B(H  53,B  10)                  1.2123         0.000000   
     59. A(C   2,C   1,C   3)          119.6140         0.000000   
     60. A(H   0,C   1,C   3)          120.5169         0.000000   
     61. A(H   0,C   1,C   2)          119.8690         0.000000   
     62. A(C   1,C   2,C   4)          121.9401         0.000000   
     63. A(C   1,C   2,H   5)          119.7119         0.000000   
     64. A(C   4,C   2,H   5)          118.3440         0.000000   
     65. A(C   1,C   3,H   7)          120.5617         0.000000   
     66. A(C   1,C   3,C   6)          119.7005         0.000000   
     67. A(C   6,C   3,H   7)          119.7374         0.000000   
     68. A(C   2,C   4,C   8)          117.8387         0.000000   
     69. A(C   2,C   4,B  10)          117.0346         0.000000   
     70. A(C   8,C   4,B  10)          125.1248         0.000000   
     71. A(C   8,C   6,H   9)          119.9435         0.000000   
     72. A(C   3,C   6,C   8)          120.6612         0.000000   
     73. A(C   3,C   6,H   9)          119.3953         0.000000   
     74. A(C   4,C   8,N  21)          117.5579         0.000000   
     75. A(C   6,C   8,N  21)          122.2003         0.000000   
     76. A(C   4,C   8,C   6)          120.2383         0.000000   
     77. A(C   4,B  10,C  13)          116.3509         0.000000   
     78. A(H  11,B  10,C  13)          116.3846         0.000000   
     79. A(C   4,B  10,H  12)          111.4410         0.000000   
     80. A(H  12,B  10,C  13)           99.9091         0.000000   
     81. A(C   4,B  10,H  11)           81.3923         0.000000   
     82. A(H  11,B  10,H  12)           30.0908         0.000000   
     83. A(H  11,B  10,H  53)          105.6277         0.000000   
     84. A(C   4,B  10,H  53)          114.7856         0.000000   
     85. A(H  12,B  10,H  53)           93.6960         0.000000   
     86. A(C  13,B  10,H  53)          116.7485         0.000000   
     87. A(B  10,H  11,N  21)          126.0499         0.000000   
     88. A(B  10,H  11,H  12)           57.8329         0.000000   
     89. A(B  10,H  12,H  11)           92.0763         0.000000   
     90. A(B  10,C  13,C  14)          129.7765         0.000000   
     91. A(C  14,C  13,N  32)          106.0650         0.000000   
     92. A(B  10,C  13,N  32)          124.1507         0.000000   
     93. A(C  27,C  14,H  28)          126.9037         0.000000   
     94. A(C  13,C  14,C  27)          108.8199         0.000000   
     95. A(C  13,C  14,H  28)          124.2732         0.000000   
     96. A(C  37,N  21,C  38)          119.4147         0.000000   
     97. A(C   8,N  21,C  38)          115.3330         0.000000   
     98. A(H  11,N  21,C  37)          105.9059         0.000000   
     99. A(C   8,N  21,H  11)           89.6810         0.000000   
    100. A(C   8,N  21,C  37)          115.3524         0.000000   
    101. A(H  11,N  21,C  38)          105.3344         0.000000   
    102. A(H  24,C  22,H  25)          107.9883         0.000000   
    103. A(H  25,C  22,C  37)          111.6962         0.000000   
    104. A(H  23,C  22,H  25)          108.1946         0.000000   
    105. A(H  24,C  22,C  37)          111.7179         0.000000   
    106. A(H  23,C  22,C  37)          109.0992         0.000000   
    107. A(H  23,C  22,H  24)          108.0160         0.000000   
    108. A(H  42,C  26,H  44)          107.0063         0.000000   
    109. A(H  42,C  26,H  43)          108.5035         0.000000   
    110. A(H  43,C  26,H  44)          107.0692         0.000000   
    111. A(C  37,C  26,H  44)          108.7838         0.000000   
    112. A(C  37,C  26,H  43)          113.6974         0.000000   
    113. A(C  37,C  26,H  42)          111.4796         0.000000   
    114. A(C  29,C  27,H  30)          125.9511         0.000000   
    115. A(C  14,C  27,H  30)          127.5291         0.000000   
    116. A(C  14,C  27,C  29)          106.5198         0.000000   
    117. A(H  31,C  29,N  32)          120.7604         0.000000   
    118. A(C  27,C  29,N  32)          108.5792         0.000000   
    119. A(C  27,C  29,H  31)          130.6604         0.000000   
    120. A(C  29,N  32,C  33)          124.5379         0.000000   
    121. A(C  13,N  32,C  33)          125.4455         0.000000   
    122. A(C  13,N  32,C  29)          110.0159         0.000000   
    123. A(H  35,C  33,H  36)          108.4223         0.000000   
    124. A(H  34,C  33,H  36)          108.7452         0.000000   
    125. A(N  32,C  33,H  36)          109.0789         0.000000   
    126. A(H  34,C  33,H  35)          108.3510         0.000000   
    127. A(N  32,C  33,H  35)          111.1045         0.000000   
    128. A(N  32,C  33,H  34)          111.0709         0.000000   
    129. A(C  26,C  37,C  39)          109.7736         0.000000   
    130. A(C  22,C  37,C  39)          107.9633         0.000000   
    131. A(N  21,C  37,C  39)          107.9643         0.000000   
    132. A(C  22,C  37,C  26)          106.9066         0.000000   
    133. A(N  21,C  37,C  26)          115.7420         0.000000   
    134. A(N  21,C  37,C  22)          108.2408         0.000000   
    135. A(N  21,C  38,C  40)          107.7407         0.000000   
    136. A(C  45,C  38,C  49)          106.9383         0.000000   
    137. A(C  40,C  38,C  49)          108.0028         0.000000   
    138. A(N  21,C  38,C  49)          108.1217         0.000000   
    139. A(C  40,C  38,C  45)          109.6232         0.000000   
    140. A(N  21,C  38,C  45)          116.1505         0.000000   
    141. A(H  16,C  39,C  37)          108.2510         0.000000   
    142. A(H  15,C  39,C  37)          108.4746         0.000000   
    143. A(H  15,C  39,H  16)          106.7695         0.000000   
    144. A(C  37,C  39,C  41)          113.3933         0.000000   
    145. A(H  16,C  39,C  41)          108.6917         0.000000   
    146. A(H  15,C  39,C  41)          111.0163         0.000000   
    147. A(H  17,C  40,C  38)          108.4992         0.000000   
    148. A(H  17,C  40,H  18)          106.7418         0.000000   
    149. A(C  38,C  40,C  41)          113.3793         0.000000   
    150. A(H  18,C  40,C  41)          108.7460         0.000000   
    151. A(H  17,C  40,C  41)          110.9636         0.000000   
    152. A(H  18,C  40,C  38)          108.2669         0.000000   
    153. A(C  39,C  41,C  40)          108.9659         0.000000   
    154. A(H  20,C  41,C  40)          110.7436         0.000000   
    155. A(H  19,C  41,C  40)          110.0550         0.000000   
    156. A(H  20,C  41,C  39)          110.7428         0.000000   
    157. A(H  19,C  41,C  39)          110.0918         0.000000   
    158. A(H  19,C  41,H  20)          106.2210         0.000000   
    159. A(H  47,C  45,H  48)          108.4624         0.000000   
    160. A(H  46,C  45,H  48)          106.8934         0.000000   
    161. A(C  38,C  45,H  48)          111.5554         0.000000   
    162. A(H  46,C  45,H  47)          107.1333         0.000000   
    163. A(C  38,C  45,H  47)          113.8643         0.000000   
    164. A(C  38,C  45,H  46)          108.6134         0.000000   
    165. A(H  51,C  49,H  52)          107.9088         0.000000   
    166. A(H  50,C  49,H  52)          107.9878         0.000000   
    167. A(C  38,C  49,H  52)          109.1085         0.000000   
    168. A(H  50,C  49,H  51)          107.8400         0.000000   
    169. A(C  38,C  49,H  51)          112.2592         0.000000   
    170. A(C  38,C  49,H  50)          111.5820         0.000000   
    171. D(C   4,C   2,C   1,H   0)    179.7863         0.000000   
    172. D(H   5,C   2,C   1,C   3)    178.9687         0.000000   
    173. D(H   5,C   2,C   1,H   0)     -0.9552         0.000000   
    174. D(C   4,C   2,C   1,C   3)     -0.2898         0.000000   
    175. D(H   7,C   3,C   1,H   0)     -0.2427         0.000000   
    176. D(C   6,C   3,C   1,C   2)     -0.3856         0.000000   
    177. D(C   6,C   3,C   1,H   0)    179.5378         0.000000   
    178. D(H   7,C   3,C   1,C   2)    179.8339         0.000000   
    179. D(C   8,C   4,C   2,H   5)   -178.3656         0.000000   
    180. D(B  10,C   4,C   2,H   5)      2.1020         0.000000   
    181. D(B  10,C   4,C   2,C   1)   -178.6297         0.000000   
    182. D(C   8,C   4,C   2,C   1)      0.9026         0.000000   
    183. D(H   9,C   6,C   3,C   1)   -179.5837         0.000000   
    184. D(C   8,C   6,C   3,H   7)   -179.7960         0.000000   
    185. D(C   8,C   6,C   3,C   1)      0.4217         0.000000   
    186. D(H   9,C   6,C   3,H   7)      0.1986         0.000000   
    187. D(C   4,C   8,C   6,C   3)      0.2121         0.000000   
    188. D(C   4,C   8,C   6,H   9)   -179.7825         0.000000   
    189. D(N  21,C   8,C   6,H   9)      0.9138         0.000000   
    190. D(N  21,C   8,C   6,C   3)   -179.0916         0.000000   
    191. D(N  21,C   8,C   4,B  10)     -2.0286         0.000000   
    192. D(C   6,C   8,C   4,C   2)     -0.8547         0.000000   
    193. D(C   6,C   8,C   4,B  10)    178.6360         0.000000   
    194. D(N  21,C   8,C   4,C   2)    178.4807         0.000000   
    195. D(C  13,B  10,C   4,C   2)    -61.6581         0.000000   
    196. D(H  53,B  10,C   4,C   8)    -99.7129         0.000000   
    197. D(H  12,B  10,C   4,C   8)      5.2163         0.000000   
    198. D(H  53,B  10,C   4,C   2)     79.7815         0.000000   
    199. D(C  13,B  10,C   4,C   8)    118.8474         0.000000   
    200. D(H  12,B  10,C   4,C   2)   -175.2893         0.000000   
    201. D(H  12,H  11,B  10,C   4)    176.9907         0.000000   
    202. D(N  21,H  11,B  10,C  13)   -119.7381         0.000000   
    203. D(N  21,H  11,B  10,H  12)    178.4873         0.000000   
    204. D(N  21,H  11,B  10,C   4)     -4.5220         0.000000   
    205. D(H  12,H  11,B  10,H  53)    -69.5603         0.000000   
    206. D(H  12,H  11,B  10,C  13)     61.7746         0.000000   
    207. D(H  11,H  12,B  10,H  53)    115.2734         0.000000   
    208. D(H  11,H  12,B  10,C   4)     -3.1968         0.000000   
    209. D(H  11,H  12,B  10,C  13)   -126.7489         0.000000   
    210. D(N  32,C  13,B  10,H  12)    -72.5952         0.000000   
    211. D(N  32,C  13,B  10,C   4)    167.3626         0.000000   
    212. D(C  14,C  13,B  10,H  11)     79.6017         0.000000   
    213. D(C  14,C  13,B  10,H  53)   -154.4704         0.000000   
    214. D(C  14,C  13,B  10,H  12)    106.2457         0.000000   
    215. D(C  14,C  13,B  10,C   4)    -13.7966         0.000000   
    216. D(H  28,C  14,C  13,N  32)   -179.2637         0.000000   
    217. D(H  28,C  14,C  13,B  10)      1.7345         0.000000   
    218. D(C  27,C  14,C  13,N  32)      0.1257         0.000000   
    219. D(C  27,C  14,C  13,B  10)   -178.8760         0.000000   
    220. D(C  38,N  21,H  12,B  10)    119.8458         0.000000   
    221. D(C  37,N  21,H  12,B  10)   -113.3777         0.000000   
    222. D(C  38,N  21,H  11,B  10)    120.2860         0.000000   
    223. D(C  37,N  21,H  11,B  10)   -112.2925         0.000000   
    224. D(C   8,N  21,H  11,B  10)      4.0445         0.000000   
    225. D(H  11,N  21,C   8,C   6)    178.2613         0.000000   
    226. D(H  11,N  21,C   8,C   4)     -1.0602         0.000000   
    227. D(C  38,N  21,C   8,C   6)     71.4059         0.000000   
    228. D(C   8,N  21,H  12,B  10)      3.2420         0.000000   
    229. D(C  38,N  21,C   8,C   4)   -107.9157         0.000000   
    230. D(C  37,N  21,C   8,C   6)    -74.2431         0.000000   
    231. D(C  37,N  21,C   8,C   4)    106.4353         0.000000   
    232. D(C  29,C  27,C  14,H  28)    179.3224         0.000000   
    233. D(C  29,C  27,C  14,C  13)     -0.0466         0.000000   
    234. D(H  30,C  27,C  14,H  28)     -0.6178         0.000000   
    235. D(H  30,C  27,C  14,C  13)   -179.9869         0.000000   
    236. D(N  32,C  29,C  27,H  30)    179.8880         0.000000   
    237. D(N  32,C  29,C  27,C  14)     -0.0534         0.000000   
    238. D(H  31,C  29,C  27,H  30)     -0.0171         0.000000   
    239. D(H  31,C  29,C  27,C  14)   -179.9586         0.000000   
    240. D(C  33,N  32,C  29,H  31)      0.3305         0.000000   
    241. D(C  33,N  32,C  29,C  27)   -179.5858         0.000000   
    242. D(C  13,N  32,C  29,H  31)   -179.9481         0.000000   
    243. D(C  13,N  32,C  29,C  27)      0.1357         0.000000   
    244. D(C  33,N  32,C  13,C  14)    179.5571         0.000000   
    245. D(C  33,N  32,C  13,B  10)     -1.3700         0.000000   
    246. D(C  29,N  32,C  13,C  14)     -0.1612         0.000000   
    247. D(C  29,N  32,C  13,B  10)    178.9117         0.000000   
    248. D(H  36,C  33,N  32,C  13)    179.7594         0.000000   
    249. D(H  35,C  33,N  32,C  29)   -120.0287         0.000000   
    250. D(H  35,C  33,N  32,C  13)     60.2926         0.000000   
    251. D(H  34,C  33,N  32,C  29)    119.2836         0.000000   
    252. D(H  34,C  33,N  32,C  13)    -60.3951         0.000000   
    253. D(C  22,C  37,C  26,H  44)    -56.1998         0.000000   
    254. D(C  22,C  37,C  26,H  43)   -175.4004         0.000000   
    255. D(C  22,C  37,C  26,H  42)     61.5636         0.000000   
    256. D(N  21,C  37,C  26,H  44)   -176.8469         0.000000   
    257. D(N  21,C  37,C  26,H  43)     63.9525         0.000000   
    258. D(N  21,C  37,C  26,H  42)    -59.0835         0.000000   
    259. D(C  26,C  37,C  22,H  24)   -179.1036         0.000000   
    260. D(C  26,C  37,C  22,H  23)     61.5408         0.000000   
    261. D(N  21,C  37,C  22,H  25)     67.2958         0.000000   
    262. D(N  21,C  37,C  22,H  24)    -53.7846         0.000000   
    263. D(N  21,C  37,C  22,H  23)   -173.1401         0.000000   
    264. D(C  26,C  37,C  22,H  25)    -58.0233         0.000000   
    265. D(C  39,C  37,N  21,C   8)   -165.2996         0.000000   
    266. D(C  26,C  37,N  21,H  11)    168.6435         0.000000   
    267. D(C  26,C  37,N  21,C  38)    -72.9097         0.000000   
    268. D(C  26,C  37,N  21,C   8)     71.2538         0.000000   
    269. D(C  22,C  37,N  21,H  11)     48.7199         0.000000   
    270. D(C  22,C  37,N  21,C  38)    167.1667         0.000000   
    271. D(C  22,C  37,N  21,C   8)    -48.6698         0.000000   
    272. D(C  49,C  38,N  21,C   8)     48.6336         0.000000   
    273. D(C  45,C  38,N  21,H  11)   -168.6012         0.000000   
    274. D(C  45,C  38,N  21,C  37)     72.6588         0.000000   
    275. D(C  45,C  38,N  21,C   8)    -71.5113         0.000000   
    276. D(C  40,C  38,N  21,H  11)     68.0395         0.000000   
    277. D(C  40,C  38,N  21,C  37)    -50.7005         0.000000   
    278. D(C  40,C  38,N  21,C   8)    165.1294         0.000000   
    279. D(H  16,C  39,C  37,C  26)   -164.5903         0.000000   
    280. D(H  16,C  39,C  37,C  22)    -48.3955         0.000000   
    281. D(H  16,C  39,C  37,N  21)     68.4145         0.000000   
    282. D(H  15,C  39,C  37,C  26)    -49.0917         0.000000   
    283. D(H  15,C  39,C  37,C  22)     67.1032         0.000000   
    284. D(H  15,C  39,C  37,N  21)   -176.0868         0.000000   
    285. D(H  18,C  40,C  38,C  49)     48.5088         0.000000   
    286. D(H  18,C  40,C  38,C  45)    164.6826         0.000000   
    287. D(H  18,C  40,C  38,N  21)    -68.0646         0.000000   
    288. D(H  17,C  40,C  38,C  49)    -66.9785         0.000000   
    289. D(H  17,C  40,C  38,C  45)     49.1952         0.000000   
    290. D(H  17,C  40,C  38,N  21)    176.4481         0.000000   
    291. D(H  20,C  41,C  39,C  37)    -64.2701         0.000000   
    292. D(H  20,C  41,C  39,H  16)    175.2932         0.000000   
    293. D(H  20,C  41,C  39,H  15)     58.1464         0.000000   
    294. D(H  19,C  41,C  39,C  37)    178.5624         0.000000   
    295. D(H  19,C  41,C  39,H  16)     58.1257         0.000000   
    296. D(H  19,C  41,C  40,H  17)     58.7236         0.000000   
    297. D(H  19,C  41,C  39,H  15)    -59.0211         0.000000   
    298. D(H  20,C  41,C  40,C  38)     63.9769         0.000000   
    299. D(H  20,C  41,C  40,H  18)   -175.5373         0.000000   
    300. D(H  20,C  41,C  40,H  17)    -58.4218         0.000000   
    301. D(H  19,C  41,C  40,C  38)   -178.8777         0.000000   
    302. D(H  19,C  41,C  40,H  18)    -58.3918         0.000000   
    303. D(H  47,C  45,C  38,C  49)    176.4175         0.000000   
    304. D(H  47,C  45,C  38,C  40)     59.5720         0.000000   
    305. D(H  47,C  45,C  38,N  21)    -62.8021         0.000000   
    306. D(H  46,C  45,C  38,C  49)     57.1483         0.000000   
    307. D(H  46,C  45,C  38,C  40)    -59.6972         0.000000   
    308. D(H  46,C  45,C  38,N  21)    177.9287         0.000000   
    309. D(H  51,C  49,C  38,C  45)    178.6477         0.000000   
    310. D(H  51,C  49,C  38,C  40)    -63.4409         0.000000   
    311. D(H  51,C  49,C  38,N  21)     52.8847         0.000000   
    312. D(H  50,C  49,C  38,C  45)     57.4569         0.000000   
    313. D(H  50,C  49,C  38,C  40)    175.3684         0.000000   
    314. D(H  50,C  49,C  38,N  21)    -68.3060         0.000000   
    -----------------------------------------------------------------

Number of atoms                         .... 54
Number of degrees of freedom            .... 314


         *************************************************************
         *                GEOMETRY OPTIMIZATION CYCLE   1            *
         *************************************************************
---------------------------------
CARTESIAN COORDINATES (ANGSTROEM)
---------------------------------
  H      1.309763    0.109385    2.673005
  C      2.099747    0.082490    1.928897
  C      2.784549    1.245824    1.605275
  C      2.431630   -1.109238    1.294317
  C      3.812302    1.259907    0.656669
  H      2.515120    2.181537    2.088083
  C      3.439161   -1.122363    0.337494
  H      1.907965   -2.028523    1.537491
  C      4.128831    0.049154    0.012489
  H      3.689151   -2.052523   -0.158863
  B      4.544863    2.658488    0.399011
  H      5.350006    1.737855   -0.749832
  H      5.490248    2.562852   -0.658035
  C      3.642691    3.831087   -0.148884
  C      2.365642    3.790515   -0.687239
  H      8.495734   -0.604486   -1.345576
  H      7.726459    0.975001   -1.468037
  H      5.546835    0.195331   -4.381550
  H      6.013000    1.436414   -3.223034
  H      7.950376   -0.009334   -3.717207
  H      7.064058   -1.441871   -3.230286
  N      5.172517    0.077584   -0.994255
  C      6.869501    0.020156    0.791492
  H      7.874983   -0.325224    1.049102
  H      6.876549    1.112815    0.793862
  H      6.183208   -0.314513    1.572897
  C      6.484654   -2.079965   -0.455805
  C      1.985633    5.102156   -1.060899
  H      1.773383    2.889763   -0.784216
  C      3.042844    5.921811   -0.740801
  H      1.052799    5.415139   -1.509182
  H      3.167590    6.990168   -0.858810
  N      4.034959    5.158654   -0.192383
  C      5.302602    5.674756    0.276446
  H      5.435743    5.479853    1.343991
  H      6.137794    5.218674   -0.263826
  H      5.332152    6.753333    0.110381
  C      6.482000   -0.542423   -0.583249
  C      4.699230   -0.067428   -2.418433
  C      7.554417   -0.101957   -1.595908
  C      5.855293    0.356394   -3.342372
  C      7.163049   -0.365155   -3.044050
  H      5.751562   -2.421617    0.277730
  H      6.299472   -2.598235   -1.397550
  H      7.468902   -2.402651   -0.099346
  C      4.194665   -1.467036   -2.828290
  H      3.849384   -1.423901   -3.866892
  H      4.958135   -2.244314   -2.775487
  H      3.341292   -1.778926   -2.222949
  C      3.535441    0.908957   -2.636450
  H      2.650833    0.613587   -2.066806
  H      3.793261    1.931419   -2.348369
  H      3.267548    0.915705   -3.697067
  H      5.381237    2.953967    1.225385

----------------------------
CARTESIAN COORDINATES (A.U.)
----------------------------
  NO LB      ZA    FRAG     MASS         X           Y           Z
   0 H     1.0000    0     1.008    2.475094    0.206708    5.051247
   1 C     6.0000    0    12.011    3.967946    0.155884    3.645087
   2 C     6.0000    0    12.011    5.262035    2.354266    3.033531
   3 C     6.0000    0    12.011    4.595116   -2.096155    2.445905
   4 C     6.0000    0    12.011    7.204206    2.380880    1.240925
   5 H     1.0000    0     1.008    4.752888    4.122507    3.945905
   6 C     6.0000    0    12.011    6.499073   -2.120958    0.637770
   7 H     1.0000    0     1.008    3.605532   -3.833353    2.905437
   8 C     6.0000    0    12.011    7.802359    0.092887    0.023600
   9 H     1.0000    0     1.008    6.971484   -3.878707   -0.300207
  10 B     5.0000    0    10.810    8.588547    5.023814    0.754022
  11 H     1.0000    0     1.008   10.110046    3.284069   -1.416978
  12 H     1.0000    0     1.008   10.375064    4.843088   -1.243506
  13 C     6.0000    0    12.011    6.883688    7.239706   -0.281350
  14 C     6.0000    0    12.011    4.470415    7.163035   -1.298693
  15 H     1.0000    0     1.008   16.054611   -1.142312   -2.542769
  16 H     1.0000    0     1.008   14.600892    1.842486   -2.774189
  17 H     1.0000    0     1.008   10.481999    0.369122   -8.279929
  18 H     1.0000    0     1.008   11.362923    2.714429   -6.090651
  19 H     1.0000    0     1.008   15.024033   -0.017638   -7.024503
  20 H     1.0000    0     1.008   13.349134   -2.724742   -6.104356
  21 N     7.0000    0    14.007    9.774641    0.146613   -1.878869
  22 C     6.0000    0    12.011   12.981475    0.038090    1.495704
  23 H     1.0000    0     1.008   14.881562   -0.614584    1.982516
  24 H     1.0000    0     1.008   12.994794    2.102916    1.500182
  25 H     1.0000    0     1.008   11.684570   -0.594344    2.972344
  26 C     6.0000    0    12.011   12.254220   -3.930564   -0.861346
  27 C     6.0000    0    12.011    3.752303    9.641677   -2.004809
  28 H     1.0000    0     1.008    3.351208    5.460861   -1.481953
  29 C     6.0000    0    12.011    5.750142   11.190602   -1.399911
  30 H     1.0000    0     1.008    1.989502   10.233130   -2.851940
  31 H     1.0000    0     1.008    5.985877   13.209504   -1.622915
  32 N     7.0000    0    14.007    7.624968    9.748444   -0.363552
  33 C     6.0000    0    12.011   10.020465   10.723735    0.522407
  34 H     1.0000    0     1.008   10.272065   10.355421    2.539775
  35 H     1.0000    0     1.008   11.598750    9.861865   -0.498559
  36 H     1.0000    0     1.008   10.076306   12.761950    0.208589
  37 C     6.0000    0    12.011   12.249205   -1.025031   -1.102180
  38 C     6.0000    0    12.011    8.880257   -0.127421   -4.570175
  39 C     6.0000    0    12.011   14.275779   -0.192670   -3.015829
  40 C     6.0000    0    12.011   11.064901    0.673487   -6.316168
  41 C     6.0000    0    12.011   13.536200   -0.690044   -5.752421
  42 H     1.0000    0     1.008   10.868877   -4.576193    0.524833
  43 H     1.0000    0     1.008   11.904277   -4.909952   -2.640986
  44 H     1.0000    0     1.008   14.114180   -4.540352   -0.187738
  45 C     6.0000    0    12.011    7.926769   -2.772297   -5.344693
  46 H     1.0000    0     1.008    7.274281   -2.690783   -7.307366
  47 H     1.0000    0     1.008    9.369517   -4.241140   -5.244911
  48 H     1.0000    0     1.008    6.314128   -3.361684   -4.200765
  49 C     6.0000    0    12.011    6.681016    1.717681   -4.982169
  50 H     1.0000    0     1.008    5.009348    1.159511   -3.905697
  51 H     1.0000    0     1.008    7.168225    3.649854   -4.437774
  52 H     1.0000    0     1.008    6.174772    1.730431   -6.986445
  53 H     1.0000    0     1.008   10.169064    5.582189    2.315642

--------------------------------
INTERNAL COORDINATES (ANGSTROEM)
--------------------------------
 H      0   0   0     0.000000000000     0.00000000     0.00000000
 C      1   0   0     1.085584459325     0.00000000     0.00000000
 C      2   1   0     1.388175209924   119.86896166     0.00000000
 C      2   1   3     1.390343024508   120.51694930   180.07681442
 C      3   2   1     1.398687767862   121.94005122   179.78627673
 H      3   2   1     1.086854943936   119.71193489   359.04477872
 C      4   2   1     1.389533218999   119.70052537   179.53778761
 H      4   2   1     1.085561853223   120.56168923   359.75730538
 C      7   4   2     1.397756637295   120.66116281     0.42168535
 H      7   4   2     1.083541876860   119.39531406   180.41631461
 B      5   3   2     1.599706820861   117.03463570   181.37025426
 H     11   5   3     1.677993618697    81.39228374   183.09031681
 H     12  11   5     0.841852170152    57.83291272   176.99072945
 C     11   5   3     1.577686299173   116.35088733   298.34186141
 C     14  11   5     1.386479589414   129.77648438   346.20341834
 H     12  11   5     3.966997952172   143.82920585   270.79338151
 H     16  12  11     1.761124618868    30.06081729   261.31709264
 H     17  16  12     3.721183130984    97.02974898   283.64193610
 H     18  17  16     1.760612523678    35.11682612   179.62446386
 H     17  16  12     2.465322740127    70.46839513   250.77818836
 H     20  17  16     1.753515231508    91.54384194    56.33784641
 N      9   7   4     1.450386971102   122.20026524   180.90837214
 C     22   9   7     2.464131533672    89.54624659   259.37741226
 H     23  22   9     1.093912941193   144.19594437   148.38811012
 H     23  22   9     1.092683981208    89.00924424   268.70474099
 H     23  22   9     1.092517137283    95.32801711    16.67938245
 C     23  22   9     2.472724280115    63.06738789   104.14732871
 C     15  14  11     1.415778727199   108.81986492   181.12397138
 H     15  14  11     1.082372131516   124.27324482     1.73450262
 C     28  15  14     1.375497496486   106.51978657   359.95335349
 H     28  15  14     1.081247184481   127.52909250   180.01311005
 H     30  28  15     1.082069374428   130.66040388   180.04143590
 N     30  28  15     1.366551280504   108.57917443   359.94658928
 C     33  30  28     1.446747852074   124.53793024   180.41424185
 H     34  33  30     1.093327878664   111.07087753   119.28356143
 H     34  33  30     1.094281216601   111.10451422   239.97131024
 H     34  33  30     1.091686279831   109.07894844   359.43812398
 C     22   9   7     1.506014592292   115.35238386   285.75686028
 C     22   9   7     1.507750560541   115.33302810    71.40585181
 C     16  12  11     1.096029301848    23.44173326   173.67051408
 C     18  17  16     1.095891471150    20.26621656    99.66817699
 C     20  17  16     1.095277392722    60.24510955    76.85813670
 H     27  23  22     1.091889858911    91.79782099   267.04221047
 H     27  23  22     1.090770359072   149.93678940    40.51847108
 H     27  23  22     1.095414797069    86.91625677   160.10313277
 C     39  22   9     1.543201579004   116.15046425   288.48870024
 H     46  39  22     1.095341734791   108.61341912   177.92874932
 H     46  39  22     1.090795781151   113.86432143   297.19793394
 H     46  39  22     1.091768189421   111.55535380    60.36516501
 C     39  22   9     1.534686845904   108.12168401    48.63364250
 H     50  39  22     1.092826846315   111.58200790   291.69399789
 H     50  39  22     1.093110418273   112.25916448    52.88473900
 H     50  39  22     1.093947559183   109.10854158   172.45157822
 H     11   5   3     1.212321031702   114.78560523    79.78146776

---------------------------
INTERNAL COORDINATES (A.U.)
---------------------------
 H      0   0   0     0.000000000000     0.00000000     0.00000000
 C      1   0   0     2.051457323366     0.00000000     0.00000000
 C      2   1   0     2.623270972655   119.86896166     0.00000000
 C      2   1   3     2.627367548528   120.51694930   180.07681442
 C      3   2   1     2.643136828125   121.94005122   179.78627673
 H      3   2   1     2.053858191338   119.71193489   359.04477872
 C      4   2   1     2.625837237894   119.70052537   179.53778761
 H      4   2   1     2.051414604023   120.56168923   359.75730538
 C      7   4   2     2.641377246358   120.66116281     0.42168535
 H      7   4   2     2.047597401901   119.39531406   180.41631461
 B      5   3   2     3.023007785994   117.03463570   181.37025426
 H     11   5   3     3.170948393805    81.39228374   183.09031681
 H     12  11   5     1.590870046834    57.83291272   176.99072945
 C     11   5   3     2.981395030676   116.35088733   298.34186141
 C     14  11   5     2.620066714265   129.77648438   346.20341834
 H     12  11   5     7.496539703431   143.82920585   270.79338151
 H     16  12  11     3.328043217368    30.06081729   261.31709264
 H     17  16  12     7.032017011728    97.02974898   283.64193610
 H     18  17  16     3.327075497703    35.11682612   179.62446386
 H     17  16  12     4.658784810569    70.46839513   250.77818836
 H     20  17  16     3.313663559210    91.54384194    56.33784641
 N      9   7   4     2.740834163591   122.20026524   180.90837214
 C     22   9   7     4.656533756599    89.54624659   259.37741226
 H     23  22   9     2.067195873208   144.19594437   148.38811012
 H     23  22   9     2.064873475407    89.00924424   268.70474099
 H     23  22   9     2.064558186080    95.32801711    16.67938245
 C     23  22   9     4.672771694115    63.06738789   104.14732871
 C     15  14  11     2.675434060637   108.81986492   181.12397138
 H     15  14  11     2.045386903554   124.27324482     1.73450262
 C     28  15  14     2.599313566253   106.51978657   359.95335349
 H     28  15  14     2.043261061743   127.52909250   180.01311005
 H     30  28  15     2.044814775573   130.66040388   180.04143590
 N     30  28  15     2.582407668112   108.57917443   359.94658928
 C     33  30  28     2.733957225259   124.53793024   180.41424185
 H     34  33  30     2.066090265255   111.07087753   119.28356143
 H     34  33  30     2.067891812870   111.10451422   239.97131024
 H     34  33  30     2.062988093039   109.07894844   359.43812398
 C     22   9   7     2.845955133121   115.35238386   285.75686028
 C     22   9   7     2.849235637688   115.33302810    71.40585181
 C     16  12  11     2.071195215245    23.44173326   173.67051408
 C     18  17  16     2.070934752974    20.26621656    99.66817699
 C     20  17  16     2.069774312919    60.24510955    76.85813670
 H     27  23  22     2.063372801747    91.79782099   267.04221047
 H     27  23  22     2.061257253645   149.93678940    40.51847108
 H     27  23  22     2.070033969505    86.91625677   160.10313277
 C     39  22   9     2.916228353753   116.15046425   288.48870024
 H     46  39  22     2.069895901809   108.61341912   177.92874932
 H     46  39  22     2.061305294413   113.86432143   297.19793394
 H     46  39  22     2.063142879732   111.55535380    60.36516501
 C     39  22   9     2.900137840091   108.12168401    48.63364250
 H     50  39  22     2.065143451331   111.58200790   291.69399789
 H     50  39  22     2.065679324673   112.25916448    52.88473900
 H     50  39  22     2.067261291728   109.10854158   172.45157822
 H     11   5   3     2.290954736309   114.78560523    79.78146776

---------------------
BASIS SET INFORMATION
---------------------
There are 4 groups of distinct atoms

 Group   1 Type H   : 4s1p contracted to 2s1p pattern {31/1}
 Group   2 Type C   : 10s4p1d contracted to 3s2p1d pattern {631/31/1}
 Group   3 Type B   : 10s4p1d contracted to 3s2p1d pattern {631/31/1}
 Group   4 Type N   : 10s4p1d contracted to 3s2p1d pattern {631/31/1}

Atom   0H    basis set group =>   1
Atom   1C    basis set group =>   2
Atom   2C    basis set group =>   2
Atom   3C    basis set group =>   2
Atom   4C    basis set group =>   2
Atom   5H    basis set group =>   1
Atom   6C    basis set group =>   2
Atom   7H    basis set group =>   1
Atom   8C    basis set group =>   2
Atom   9H    basis set group =>   1
Atom  10B    basis set group =>   3
Atom  11H    basis set group =>   1
Atom  12H    basis set group =>   1
Atom  13C    basis set group =>   2
Atom  14C    basis set group =>   2
Atom  15H    basis set group =>   1
Atom  16H    basis set group =>   1
Atom  17H    basis set group =>   1
Atom  18H    basis set group =>   1
Atom  19H    basis set group =>   1
Atom  20H    basis set group =>   1
Atom  21N    basis set group =>   4
Atom  22C    basis set group =>   2
Atom  23H    basis set group =>   1
Atom  24H    basis set group =>   1
Atom  25H    basis set group =>   1
Atom  26C    basis set group =>   2
Atom  27C    basis set group =>   2
Atom  28H    basis set group =>   1
Atom  29C    basis set group =>   2
Atom  30H    basis set group =>   1
Atom  31H    basis set group =>   1
Atom  32N    basis set group =>   4
Atom  33C    basis set group =>   2
Atom  34H    basis set group =>   1
Atom  35H    basis set group =>   1
Atom  36H    basis set group =>   1
Atom  37C    basis set group =>   2
Atom  38C    basis set group =>   2
Atom  39C    basis set group =>   2
Atom  40C    basis set group =>   2
Atom  41C    basis set group =>   2
Atom  42H    basis set group =>   1
Atom  43H    basis set group =>   1
Atom  44H    basis set group =>   1
Atom  45C    basis set group =>   2
Atom  46H    basis set group =>   1
Atom  47H    basis set group =>   1
Atom  48H    basis set group =>   1
Atom  49C    basis set group =>   2
Atom  50H    basis set group =>   1
Atom  51H    basis set group =>   1
Atom  52H    basis set group =>   1
Atom  53H    basis set group =>   1
---------------------------------
AUXILIARY/J BASIS SET INFORMATION
---------------------------------
There are 4 groups of distinct atoms

 Group   1 Type H   : 5s2p1d contracted to 3s1p1d pattern {311/2/1}
 Group   2 Type C   : 12s5p4d2f1g contracted to 6s4p3d1f1g pattern {711111/2111/211/2/1}
 Group   3 Type B   : 12s5p4d2f1g contracted to 6s4p3d1f1g pattern {711111/2111/211/2/1}
 Group   4 Type N   : 12s5p4d2f1g contracted to 6s4p3d1f1g pattern {711111/2111/211/2/1}

Atom   0H    basis set group =>   1
Atom   1C    basis set group =>   2
Atom   2C    basis set group =>   2
Atom   3C    basis set group =>   2
Atom   4C    basis set group =>   2
Atom   5H    basis set group =>   1
Atom   6C    basis set group =>   2
Atom   7H    basis set group =>   1
Atom   8C    basis set group =>   2
Atom   9H    basis set group =>   1
Atom  10B    basis set group =>   3
Atom  11H    basis set group =>   1
Atom  12H    basis set group =>   1
Atom  13C    basis set group =>   2
Atom  14C    basis set group =>   2
Atom  15H    basis set group =>   1
Atom  16H    basis set group =>   1
Atom  17H    basis set group =>   1
Atom  18H    basis set group =>   1
Atom  19H    basis set group =>   1
Atom  20H    basis set group =>   1
Atom  21N    basis set group =>   4
Atom  22C    basis set group =>   2
Atom  23H    basis set group =>   1
Atom  24H    basis set group =>   1
Atom  25H    basis set group =>   1
Atom  26C    basis set group =>   2
Atom  27C    basis set group =>   2
Atom  28H    basis set group =>   1
Atom  29C    basis set group =>   2
Atom  30H    basis set group =>   1
Atom  31H    basis set group =>   1
Atom  32N    basis set group =>   4
Atom  33C    basis set group =>   2
Atom  34H    basis set group =>   1
Atom  35H    basis set group =>   1
Atom  36H    basis set group =>   1
Atom  37C    basis set group =>   2
Atom  38C    basis set group =>   2
Atom  39C    basis set group =>   2
Atom  40C    basis set group =>   2
Atom  41C    basis set group =>   2
Atom  42H    basis set group =>   1
Atom  43H    basis set group =>   1
Atom  44H    basis set group =>   1
Atom  45C    basis set group =>   2
Atom  46H    basis set group =>   1
Atom  47H    basis set group =>   1
Atom  48H    basis set group =>   1
Atom  49C    basis set group =>   2
Atom  50H    basis set group =>   1
Atom  51H    basis set group =>   1
Atom  52H    basis set group =>   1
Atom  53H    basis set group =>   1


           ************************************************************
           *        Program running with 24 parallel MPI-processes    *
           *              working on a common directory               *
           ************************************************************
------------------------------------------------------------------------------
                             ORCA STARTUP CALCULATIONS
                           -- RI-GTO INTEGRALS CHOSEN --
------------------------------------------------------------------------------
------------------------------------------------------------------------------
                   ___                                                        
                  /   \      - P O W E R E D   B Y -                         
                 /     \                                                     
                 |  |  |   _    _      __       _____    __    __             
                 |  |  |  | |  | |    /  \     |  _  \  |  |  /  |          
                  \  \/   | |  | |   /    \    | | | |  |  | /  /          
                 / \  \   | |__| |  /  /\  \   | |_| |  |  |/  /          
                |  |  |   |  __  | /  /__\  \  |    /   |      \           
                |  |  |   | |  | | |   __   |  |    \   |  |\   \          
                \     /   | |  | | |  |  |  |  | |\  \  |  | \   \       
                 \___/    |_|  |_| |__|  |__|  |_| \__\ |__|  \__/        
                                                                              
                      - O R C A' S   B I G   F R I E N D -                    
                                      &                                       
                       - I N T E G R A L  F E E D E R -                       
                                                                              
 v1 FN, 2020, v2 2021, v3 2022-2024                                           
------------------------------------------------------------------------------


----------------------
SHARK INTEGRAL PACKAGE
----------------------

Number of atoms                             ...     54
Number of basis functions                   ...    477
Number of shells                            ...    231
Maximum angular momentum                    ...      2
Integral batch strategy                     ... SHARK/LIBINT Hybrid
RI-J (if used) integral strategy            ... SPLIT-RIJ (Revised 2003 algorithm where possible)
Printlevel                                  ...      1
Contraction scheme used                     ... SEGMENTED contraction
Prescreening option                         ... SCHWARTZ
   Thresh                                   ... 2.500e-11
   Tcut                                     ... 2.500e-12
   Tpresel                                  ... 2.500e-12 
Coulomb Range Separation                    ... NOT USED
Exchange Range Separation                   ... Long Range
   Mu parameter                             ... 2.500e-01
   Scaling (regular/separated)              ... 1.957e-01 8.043e-01
Multipole approximations                    ... NOT USED
Finite Nucleus Model                        ... NOT USED
CABS basis                                  ... NOT available
Auxiliary Coulomb fitting basis             ... AVAILABLE
   # of basis functions in Aux-J            ...   1468
   # of shells in Aux-J                     ...    500
   Maximum angular momentum in Aux-J        ...      4
Auxiliary J/K fitting basis                 ... NOT available
Auxiliary Correlation fitting basis         ... NOT available
Auxiliary 'external' fitting basis          ... NOT available

Checking pre-screening integrals            ... done (  0.0 sec) Dimension = 231
Check shell pair data                       ... done (  0.0 sec)
Shell pair information
Shell pair cut-off parameter TPreSel        ...   2.5e-12
Total number of shell pairs                 ...     26796
Shell pairs after pre-screening             ...     19638
Total number of primitive shell pairs       ...    125826
Primitive shell pairs kept                  ...     53405
          la=0 lb=0:   6513 shell pairs
          la=1 lb=0:   7428 shell pairs
          la=1 lb=1:   2191 shell pairs
          la=2 lb=0:   2121 shell pairs
          la=2 lb=1:   1209 shell pairs
          la=2 lb=2:    176 shell pairs

Calculating one electron integrals          ... done (  0.1 sec)
Calculating RI/J V-Matrix + Cholesky decomp.... done (  0.3 sec)
Calculating Nuclear repulsion               ... done (  0.0 sec) ENN=   2066.458858114327 Eh

Diagonalization of the overlap matrix:
Smallest eigenvalue                        ... 4.117e-04
Time for diagonalization                   ...    0.036 sec
Threshold for overlap eigenvalues          ... 1.000e-07
Number of eigenvalues below threshold      ... 0
Time for construction of square roots      ...    0.025 sec
Total time needed                          ...    0.093 sec

-------------------
DFT GRID GENERATION
-------------------

General Integration Accuracy     IntAcc      ... 4.388
Radial Grid Type                 RadialGrid  ... OptM3 with GC (2021)
Angular Grid (max. ang.)         AngularGrid ... 4 (Lebedev-302)
Angular grid pruning method      GridPruning ... 4 (adaptive)
Weight generation scheme         WeightScheme... mBecke (2022)
Basis function cutoff            BFCut       ... 1.0000e-11
Integration weight cutoff        WCut        ... 1.0000e-14
Partially contracted basis set               ... off
Rotationally invariant grid construction     ... off
Angular grids for H and He will be reduced by one unit

Total number of grid points                  ...   232911
Total number of batches                      ...     3665
Average number of points per batch           ...       63
Average number of grid points per atom       ...     4313

--------------------
COSX GRID GENERATION
--------------------

GRIDX 1
-------
General Integration Accuracy     IntAcc      ... 3.816
Radial Grid Type                 RadialGrid  ... OptM3 with GC (2021)
Angular Grid (max. ang.)         AngularGrid ... 1 (Lebedev-50)
Angular grid pruning method      GridPruning ... 4 (adaptive)
Weight generation scheme         WeightScheme... mBecke (2022)
Basis function cutoff            BFCut       ... 1.0000e-11
Integration weight cutoff        WCut        ... 1.0000e-14
Partially contracted basis set               ... on
Rotationally invariant grid construction     ... off
Angular grids for H and He will be reduced by one unit

Total number of grid points                  ...    29575
Total number of batches                      ...      258
Average number of points per batch           ...      114
Average number of grid points per atom       ...      548
UseSFitting                                  ... on

GRIDX 2
-------
General Integration Accuracy     IntAcc      ... 4.020
Radial Grid Type                 RadialGrid  ... OptM3 with GC (2021)
Angular Grid (max. ang.)         AngularGrid ... 2 (Lebedev-110)
Angular grid pruning method      GridPruning ... 4 (adaptive)
Weight generation scheme         WeightScheme... mBecke (2022)
Basis function cutoff            BFCut       ... 1.0000e-11
Integration weight cutoff        WCut        ... 1.0000e-14
Partially contracted basis set               ... on
Rotationally invariant grid construction     ... off
Angular grids for H and He will be reduced by one unit

Total number of grid points                  ...    61627
Total number of batches                      ...      513
Average number of points per batch           ...      120
Average number of grid points per atom       ...     1141
UseSFitting                                  ... on

GRIDX 3
-------
General Integration Accuracy     IntAcc      ... 4.338
Radial Grid Type                 RadialGrid  ... OptM3 with GC (2021)
Angular Grid (max. ang.)         AngularGrid ... 3 (Lebedev-194)
Angular grid pruning method      GridPruning ... 4 (adaptive)
Weight generation scheme         WeightScheme... mBecke (2022)
Basis function cutoff            BFCut       ... 1.0000e-11
Integration weight cutoff        WCut        ... 1.0000e-14
Partially contracted basis set               ... on
Rotationally invariant grid construction     ... off
Angular grids for H and He will be reduced by one unit

Total number of grid points                  ...   133523
Total number of batches                      ...     1071
Average number of points per batch           ...      124
Average number of grid points per atom       ...     2473
UseSFitting                                  ... on
Initializing property integral containers    ... done (  0.1 sec)

SHARK setup successfully completed in   4.5 seconds

Maximum memory used throughout the entire STARTUP-calculation: 68.1 MB


           ************************************************************
           *        Program running with 24 parallel MPI-processes    *
           *              working on a common directory               *
           ************************************************************
-------------------------------------------------------------------------------
                                 ORCA GUESS
                   Start orbitals & Density for SCF / CASSCF
-------------------------------------------------------------------------------

------------
SCF SETTINGS
------------
Hamiltonian:
 Density Functional     Method          .... DFT(GTOs)
 Exchange Functional    Exchange        .... WB97X-D3
 Correlation Functional Correlation     .... WB97X-D3
 Gradients option       PostSCFGGA      .... off
 Hybrid DFT is turned on
   Fraction HF Exchange ScalHFX         ....  0.195728
   Scaling of DF-GGA-X  ScalDFX         ....  0.000000
   Scaling of DF-GGA-C  ScalDFC         ....  1.000000
   Scaling of DF-LDA-C  ScalLDAC        ....  1.000000
   Perturbative correction              ....  0.000000
 Long-range corrected/Screened/Range-Separated Hybrid DFT is turned on
   Amount of maximum screened exact exchange              ....  0.804272
   Range separation parameter mu (erf(mu*r12)/r12)        ....  0.250000
 RI-approximation to the Coulomb term is turned on
   Number of AuxJ basis functions       .... 1468
   RIJ-COSX (HFX calculated with COS-X)).... on


General Settings:
 Integral files         IntName         .... input
 Hartree-Fock type      HFTyp           .... RHF
 Total Charge           Charge          ....    0
 Multiplicity           Mult            ....    1
 Number of Electrons    NEL             ....  170
 Basis Dimension        Dim             ....  477
 Nuclear Repulsion      ENuc            ....   2066.4588581143 Eh

Convergence Acceleration:
 AO-DIIS                CNVDIIS         .... on
   Start iteration      DIISMaxIt       ....    12
   Startup error        DIISStart       ....  0.200000
   # of expansion vecs  DIISMaxEq       ....     5
   Bias factor          DIISBfac        ....   1.050
   Max. coefficient     DIISMaxC        ....  10.000
 MO-DIIS                CNVKDIIS        .... off
 Trust-Rad. Augm. Hess. CNVTRAH         .... auto
   Auto Start mean grad. ratio tolernc. ....  1.125000
   Auto Start start iteration           ....    50
   Auto Start num. interpolation iter.  ....    10
   Max. Number of Micro iterations      ....    24
   Max. Number of Macro iterations      .... Maxiter - #DIIS iter
   Number of Davidson start vectors     ....     2
   Converg. threshold    (grad. norm)   ....   1.000e-05
   Grad. Scal. Fac. for Micro threshold ....   0.100
   Minimum threshold for Micro iter.    ....   1.000e-02
   NR start threshold (gradient norm)   ....   1.000e-04
   Initial trust radius                 ....   0.400
   Minimum AH scaling param. (alpha)    ....   1.000
   Maximum AH scaling param. (alpha)    .... 1000.000
   Quad. conv. algorithm                .... NR
   White noise on init. David. guess    .... on
   Maximum white noise                  ....   0.010
   Pseudo random numbers                .... off
   Inactive MOs                         .... canonical
   Orbital update algorithm             .... Taylor
   Preconditioner                       .... Diag
   Full preconditioner red. dimension   ....   250
 SOSCF                  CNVSOSCF        .... on
   Start iteration      SOSCFMaxIt      ....   150
   Startup grad/error   SOSCFStart      ....  0.003300
   Hessian update       SOSCFHessUp     .... L-BFGS
 Level Shifting         CNVShift        .... on
   Level shift para.    LevelShift      ....    0.2500
   Turn off err/grad.   ShiftErr        ....    0.0010
 Zerner damping         CNVZerner       .... off
 Static damping         CNVDamp         .... on
   Fraction old density DampFac         ....    0.7000
   Max. Damping (<1)    DampMax         ....    0.9800
   Min. Damping (>=0)   DampMin         ....    0.0000
   Turn off err/grad.   DampErr         ....    0.1000

SCF Procedure:
 Maximum # iterations   MaxIter         ....   125
 SCF integral mode      SCFMode         .... Direct
   Integral package                     .... SHARK and LIBINT hybrid scheme
 Reset frequency        DirectResetFreq ....    20
 Integral Threshold     Thresh          ....  2.500e-11 Eh
 Primitive CutOff       TCut            ....  2.500e-12 Eh

Convergence Tolerance:
 Convergence Check Mode ConvCheckMode   .... Total+1el-Energy
 Convergence forced     ConvForced      .... 0
 Energy Change          TolE            ....  1.000e-08 Eh
 1-El. energy change                    ....  1.000e-05 Eh
 Orbital Gradient       TolG            ....  1.000e-05
 Orbital Rotation angle TolX            ....  1.000e-05
 DIIS Error             TolErr          ....  5.000e-07

------------------------------
INITIAL GUESS: MODEL POTENTIAL
------------------------------
Loading Hartree-Fock densities                     ... done
Calculating cut-offs                               ... done
Initializing the effective Hamiltonian             ... done
Setting up the integral package (SHARK)            ... done
Starting the Coulomb interaction                   ... done (   0.2 sec)
Making the grid                                    ... done (   0.3 sec)
Mapping shells                                     ... done
Starting the XC term evaluation                    ... done (   0.1 sec)
  promolecular density results
     # of electrons  =    169.979486620
     EX              =   -128.431368512
     EC              =     -5.680379757
     EX+EC           =   -134.111748268
Transforming the Hamiltonian                       ... done (   0.1 sec)
Diagonalizing the Hamiltonian                      ... done (   0.0 sec)
Back transforming the eigenvectors                 ... done (   0.0 sec)
Now organizing SCF variables                       ... done
                      ------------------
                      INITIAL GUESS DONE (   0.9 sec)
                      ------------------
             **** ENERGY FILE WAS UPDATED (input.en.tmp) ****
Finished Guess after   1.3 sec
Maximum memory used throughout the entire GUESS-calculation: 42.7 MB


           ************************************************************
           *        Program running with 24 parallel MPI-processes    *
           *              working on a common directory               *
           ************************************************************

-------------------------------------------------------------------------------------------
                                      ORCA LEAN-SCF
                              memory conserving SCF solver
-------------------------------------------------------------------------------------------

----------------------------------------D-I-I-S--------------------------------------------
Iteration    Energy (Eh)           Delta-E    RMSDP     MaxDP     DIISErr   Damp  Time(sec)
-------------------------------------------------------------------------------------------
               ***  Starting incremental Fock matrix formation  ***
    1    -914.3112652381323642     0.00e+00  1.32e-03  4.70e-02  1.58e-01  0.700   6.2
    2    -914.5370368256135407    -2.26e-01  1.04e-03  3.39e-02  9.51e-02  0.700   3.0
                               ***Turning on AO-DIIS***
    3    -914.6591883306937234    -1.22e-01  5.46e-04  1.84e-02  4.94e-02  0.700   2.9
    4    -914.7321102065275227    -7.29e-02  1.17e-03  3.72e-02  3.14e-02  0.000   2.8
    5    -914.8862888437502079    -1.54e-01  1.06e-04  5.50e-03  3.92e-03  0.000   2.9
                              *** Initializing SOSCF ***
---------------------------------------S-O-S-C-F--------------------------------------
Iteration    Energy (Eh)           Delta-E    RMSDP     MaxDP     MaxGrad    Time(sec)
--------------------------------------------------------------------------------------
    6    -914.8866062659631098    -3.17e-04  5.25e-05  2.05e-03  1.31e-03     2.5
               *** Restarting incremental Fock matrix formation ***
    7    -914.8867450733318947    -1.39e-04  3.42e-05  1.80e-03  7.75e-04     5.9
    8    -914.8867618871599916    -1.68e-05  3.03e-05  1.29e-03  3.38e-04     4.0
    9    -914.8867666299693155    -4.74e-06  9.49e-06  3.00e-04  1.17e-04     4.0
   10    -914.8867675204132865    -8.90e-07  2.02e-06  6.64e-05  2.62e-05     3.6
   11    -914.8867675716032863    -5.12e-08  7.85e-07  4.59e-05  1.36e-05     3.1
   12    -914.8867675964393129    -2.48e-08  2.60e-07  1.03e-05  3.22e-06     2.6
   13    -914.8867675772617076     1.92e-08  1.11e-07  5.13e-06  2.35e-06     2.1
                  *** Gradient check signals convergence ***

               *****************************************************
               *                     SUCCESS                       *
               *           SCF CONVERGED AFTER  13 CYCLES          *
               *****************************************************

Recomputing exchange energy using gridx3       ... done (   10.088 sec)
Old exchange energy                            :    -43.976879840 Eh
New exchange energy                            :    -43.976910785 Eh
Exchange energy change after final integration :     -0.000030945 Eh
Total energy after final integration           :   -914.886798522 Eh
             **** ENERGY FILE WAS UPDATED (input.en.tmp) ****

----------------
TOTAL SCF ENERGY
----------------

Total Energy       :       -914.88679852205507 Eh          -24895.33544 eV

Components:
Nuclear Repulsion  :       2066.45885811432709 Eh           56231.20427 eV
Electronic Energy  :      -2981.34562569158879 Eh          -81126.53887 eV
One Electron Energy:      -5344.39570515932610 Eh         -145428.40057 eV
Two Electron Energy:       2363.05007946773731 Eh           64301.86171 eV

Virial components:
Potential Energy   :      -1823.24792830083061 Eh          -49613.09841 eV
Kinetic Energy     :        908.36112977877553 Eh           24717.76297 eV
Virial Ratio       :          2.00718400262775

DFT components:
N(Alpha)           :       85.000058718101 electrons
N(Beta)            :       85.000058718101 electrons
N(Total)           :      170.000117436203 electrons
E(XC)              :      -94.062917450147 Eh       

---------------
SCF CONVERGENCE
---------------

  Last Energy change         ...   -1.9178e-08  Tolerance :   1.0000e-08
  Last MAX-Density change    ...    5.1297e-06  Tolerance :   1.0000e-07
  Last RMS-Density change    ...    1.1120e-07  Tolerance :   5.0000e-09
  Last DIIS Error            ...    1.3149e-03  Tolerance :   5.0000e-07
  Last Orbital Gradient      ...    2.3534e-06  Tolerance :   1.0000e-05
  Last Orbital Rotation      ...    4.8781e-06  Tolerance :   1.0000e-05


----------------
ORBITAL ENERGIES
----------------

  NO   OCC          E(Eh)            E(eV) 
   0   2.0000     -14.462085      -393.5333 
   1   2.0000     -14.451081      -393.2339 
   2   2.0000     -10.334358      -281.2122 
   3   2.0000     -10.333020      -281.1758 
   4   2.0000     -10.312973      -280.6303 
   5   2.0000     -10.312816      -280.6260 
   6   2.0000     -10.285569      -279.8846 
   7   2.0000     -10.284850      -279.8650 
   8   2.0000     -10.283588      -279.8307 
[...]
138:   3086.51   0.001533    7.75  0.000155  ( 0.007033 -0.000394  0.010265)
139:   3087.82   0.002134   10.79  0.000216  (-0.010145  0.001189 -0.010554)
140:   3103.15   0.001269    6.41  0.000128  ( 0.007834 -0.003247  0.007463)
141:   3108.56   0.003609   18.24  0.000362  (-0.002989  0.017245  0.007484)
142:   3130.75   0.005404   27.31  0.000539  (-0.021852  0.002846  0.007286)
143:   3132.05   0.004336   21.91  0.000432  (-0.003984  0.006608 -0.019299)
144:   3137.67   0.005543   28.01  0.000551  ( 0.003871  0.022634  0.004898)
145:   3143.37   0.004711   23.81  0.000468  (-0.004539  0.012138  0.017312)
146:   3172.72   0.001238    6.26  0.000122  ( 0.002923 -0.002372  0.010372)
147:   3174.34   0.004181   21.13  0.000411  ( 0.003052 -0.018457  0.007817)
148:   3174.92   0.001087    5.49  0.000107  (-0.008921  0.003791  0.003593)
149:   3179.96   0.005810   29.36  0.000570  ( 0.017614 -0.006505  0.014750)
150:   3185.13   0.000688    3.48  0.000067  (-0.002795 -0.007532  0.001691)
151:   3187.34   0.002150   10.86  0.000210  ( 0.009281  0.000447 -0.011141)
152:   3188.87   0.003170   16.02  0.000310  ( 0.014039  0.003947 -0.009877)
153:   3207.71   0.001293    6.53  0.000126  ( 0.008039 -0.003141  0.007161)
154:   3210.18   0.000426    2.15  0.000041  (-0.004270 -0.002624  0.004040)
155:   3223.01   0.003578   18.08  0.000346  ( 0.012282 -0.005222 -0.012973)
156:   3224.95   0.004859   24.55  0.000470  (-0.006117  0.017368  0.011449)
157:   3234.11   0.004508   22.78  0.000435  ( 0.014784  0.003685 -0.014242)
158:   3253.95   0.002931   14.81  0.000281  (-0.000495  0.016565 -0.002532)
159:   3256.55   0.002057   10.40  0.000197  ( 0.001241  0.013880  0.001717)
160:   3267.41   0.002370   11.98  0.000226  ( 0.011081  0.010104  0.001229)
161:   3288.64   0.003183   16.08  0.000302  (-0.011509  0.011839 -0.005422)

* The epsilon (eps) is given for a Dirac delta lineshape.
** The dipole moment derivative (T) already includes vibrational overlap.

The first frequency considered to be a vibration is 7
The total number of vibrations considered is 155


--------------------------
THERMOCHEMISTRY AT 298.15K
--------------------------

Temperature         ...   298.15 K
Pressure            ...     1.00 atm
Total Mass          ...   310.29 AMU
Quasi RRHO          ...     True
Cut-Off Frequency   ...     1.00 cm^-1

Throughout the following assumptions are being made:
  (1) The electronic state is orbitally nondegenerate
  (2) There are no thermally accessible electronically excited states
  (3) Hindered rotations indicated by low frequency modes are not
      treated as such but are treated as vibrations and this may
      cause some error
  (4) All equations used are the standard statistical mechanics
      equations for an ideal gas
  (5) All vibrations are strictly harmonic

freq.      29.14  E(vib)   ...       0.55 
freq.      45.18  E(vib)   ...       0.53 
freq.      52.32  E(vib)   ...       0.52 
freq.      67.68  E(vib)   ...       0.50 
freq.      93.27  E(vib)   ...       0.47 
freq.      96.91  E(vib)   ...       0.46 
freq.     124.67  E(vib)   ...       0.43 
freq.     154.23  E(vib)   ...       0.40 
freq.     164.29  E(vib)   ...       0.39 
freq.     184.07  E(vib)   ...       0.37 
freq.     199.45  E(vib)   ...       0.35 
freq.     209.79  E(vib)   ...       0.34 
freq.     231.36  E(vib)   ...       0.32 
freq.     241.42  E(vib)   ...       0.31 
freq.     264.55  E(vib)   ...       0.29 
freq.     283.97  E(vib)   ...       0.28 
freq.     287.58  E(vib)   ...       0.27 
freq.     298.42  E(vib)   ...       0.26 
freq.     309.06  E(vib)   ...       0.26 
freq.     322.37  E(vib)   ...       0.25 
freq.     326.01  E(vib)   ...       0.24 
freq.     343.72  E(vib)   ...       0.23 
freq.     357.60  E(vib)   ...       0.22 
freq.     381.72  E(vib)   ...       0.21 
freq.     398.19  E(vib)   ...       0.20 
freq.     412.47  E(vib)   ...       0.19 
freq.     425.67  E(vib)   ...       0.18 
freq.     440.52  E(vib)   ...       0.17 
freq.     470.58  E(vib)   ...       0.15 
freq.     483.16  E(vib)   ...       0.15 
freq.     496.95  E(vib)   ...       0.14 
freq.     519.96  E(vib)   ...       0.13 
freq.     565.73  E(vib)   ...       0.11 
freq.     571.94  E(vib)   ...       0.11 
freq.     595.82  E(vib)   ...       0.10 
freq.     624.82  E(vib)   ...       0.09 
freq.     641.06  E(vib)   ...       0.09 
freq.     649.70  E(vib)   ...       0.08 
freq.     659.59  E(vib)   ...       0.08 
freq.     710.44  E(vib)   ...       0.07 
freq.     737.02  E(vib)   ...       0.06 
freq.     751.18  E(vib)   ...       0.06 
freq.     764.90  E(vib)   ...       0.06 
freq.     772.02  E(vib)   ...       0.05 
freq.     786.03  E(vib)   ...       0.05 
freq.     797.73  E(vib)   ...       0.05 
freq.     809.77  E(vib)   ...       0.05 
freq.     817.29  E(vib)   ...       0.05 
freq.     844.03  E(vib)   ...       0.04 
freq.     873.31  E(vib)   ...       0.04 
freq.     875.64  E(vib)   ...       0.04 
freq.     895.06  E(vib)   ...       0.03 
freq.     913.16  E(vib)   ...       0.03 
freq.     916.63  E(vib)   ...       0.03 
freq.     929.36  E(vib)   ...       0.03 
freq.     933.85  E(vib)   ...       0.03 
freq.     955.55  E(vib)   ...       0.03 
freq.     962.28  E(vib)   ...       0.03 
freq.     986.42  E(vib)   ...       0.02 
freq.     986.68  E(vib)   ...       0.02 
freq.    1001.36  E(vib)   ...       0.02 
freq.    1008.09  E(vib)   ...       0.02 
freq.    1018.35  E(vib)   ...       0.02 
freq.    1026.20  E(vib)   ...       0.02 
freq.    1027.71  E(vib)   ...       0.02 
freq.    1030.55  E(vib)   ...       0.02 
freq.    1044.55  E(vib)   ...       0.02 
freq.    1078.86  E(vib)   ...       0.02 
freq.    1087.75  E(vib)   ...       0.02 
freq.    1089.38  E(vib)   ...       0.02 
freq.    1092.95  E(vib)   ...       0.02 
freq.    1097.83  E(vib)   ...       0.02 
freq.    1115.59  E(vib)   ...       0.01 
freq.    1121.43  E(vib)   ...       0.01 
freq.    1123.98  E(vib)   ...       0.01 
freq.    1156.76  E(vib)   ...       0.01 
freq.    1162.14  E(vib)   ...       0.01 
freq.    1179.29  E(vib)   ...       0.01 
freq.    1193.80  E(vib)   ...       0.01 
freq.    1207.27  E(vib)   ...       0.01 
freq.    1214.97  E(vib)   ...       0.01 
freq.    1227.50  E(vib)   ...       0.01 
freq.    1251.25  E(vib)   ...       0.01 
freq.    1255.10  E(vib)   ...       0.01 
freq.    1264.30  E(vib)   ...       0.01 
freq.    1268.35  E(vib)   ...       0.01 
freq.    1281.22  E(vib)   ...       0.01 
freq.    1283.86  E(vib)   ...       0.01 
freq.    1292.51  E(vib)   ...       0.01 
freq.    1311.58  E(vib)   ...       0.01 
freq.    1336.11  E(vib)   ...       0.01 
freq.    1354.88  E(vib)   ...       0.01 
freq.    1363.85  E(vib)   ...       0.01 
freq.    1385.80  E(vib)   ...       0.00 
freq.    1411.03  E(vib)   ...       0.00 
freq.    1414.82  E(vib)   ...       0.00 
freq.    1417.32  E(vib)   ...       0.00 
freq.    1423.96  E(vib)   ...       0.00 
freq.    1435.45  E(vib)   ...       0.00 
freq.    1445.59  E(vib)   ...       0.00 
freq.    1453.46  E(vib)   ...       0.00 
freq.    1471.76  E(vib)   ...       0.00 
freq.    1481.41  E(vib)   ...       0.00 
freq.    1486.61  E(vib)   ...       0.00 
freq.    1492.38  E(vib)   ...       0.00 
freq.    1493.84  E(vib)   ...       0.00 
freq.    1494.47  E(vib)   ...       0.00 
freq.    1494.95  E(vib)   ...       0.00 
freq.    1496.69  E(vib)   ...       0.00 
freq.    1504.98  E(vib)   ...       0.00 
freq.    1510.21  E(vib)   ...       0.00 
freq.    1512.36  E(vib)   ...       0.00 
freq.    1514.27  E(vib)   ...       0.00 
freq.    1518.03  E(vib)   ...       0.00 
freq.    1522.97  E(vib)   ...       0.00 
freq.    1524.06  E(vib)   ...       0.00 
freq.    1534.57  E(vib)   ...       0.00 
freq.    1536.50  E(vib)   ...       0.00 
freq.    1549.25  E(vib)   ...       0.00 
freq.    1555.88  E(vib)   ...       0.00 
freq.    1577.43  E(vib)   ...       0.00 
freq.    1607.66  E(vib)   ...       0.00 
freq.    1662.33  E(vib)   ...       0.00 
freq.    1695.84  E(vib)   ...       0.00 
freq.    2110.87  E(vib)   ...       0.00 
freq.    2412.58  E(vib)   ...       0.00 
freq.    2896.05  E(vib)   ...       0.00 
freq.    3068.78  E(vib)   ...       0.00 
freq.    3070.37  E(vib)   ...       0.00 
freq.    3071.74  E(vib)   ...       0.00 
freq.    3082.53  E(vib)   ...       0.00 
freq.    3086.51  E(vib)   ...       0.00 
freq.    3087.82  E(vib)   ...       0.00 
freq.    3103.15  E(vib)   ...       0.00 
freq.    3108.56  E(vib)   ...       0.00 
freq.    3130.75  E(vib)   ...       0.00 
freq.    3132.05  E(vib)   ...       0.00 
freq.    3137.67  E(vib)   ...       0.00 
freq.    3143.37  E(vib)   ...       0.00 
freq.    3172.72  E(vib)   ...       0.00 
freq.    3174.34  E(vib)   ...       0.00 
freq.    3174.92  E(vib)   ...       0.00 
freq.    3179.96  E(vib)   ...       0.00 
freq.    3185.13  E(vib)   ...       0.00 
freq.    3187.34  E(vib)   ...       0.00 
freq.    3188.87  E(vib)   ...       0.00 
freq.    3207.71  E(vib)   ...       0.00 
freq.    3210.18  E(vib)   ...       0.00 
freq.    3223.01  E(vib)   ...       0.00 
freq.    3224.95  E(vib)   ...       0.00 
freq.    3234.11  E(vib)   ...       0.00 
freq.    3253.95  E(vib)   ...       0.00 
freq.    3256.55  E(vib)   ...       0.00 
freq.    3267.41  E(vib)   ...       0.00 
freq.    3288.64  E(vib)   ...       0.00 

------------
INNER ENERGY
------------

The inner energy is: U= E(el) + E(ZPE) + E(vib) + E(rot) + E(trans)
    E(el)   - is the total energy from the electronic structure calculation
              = E(kin-el) + E(nuc-el) + E(el-el) + E(nuc-nuc)
    E(ZPE)  - the the zero temperature vibrational energy from the frequency calculation
    E(vib)  - the the finite temperature correction to E(ZPE) due to population
              of excited vibrational states
    E(rot)  - is the rotational thermal energy
    E(trans)- is the translational thermal energy

Summary of contributions to the inner energy U:
Electronic energy                ...   -914.94165538 Eh
Zero point energy                ...      0.48368021 Eh     303.51 kcal/mol
Thermal vibrational correction   ...      0.01887825 Eh      11.85 kcal/mol
Thermal rotational correction    ...      0.00141627 Eh       0.89 kcal/mol
Thermal translational correction ...      0.00141627 Eh       0.89 kcal/mol
-----------------------------------------------------------------------
Total thermal energy                   -914.43626438 Eh


Summary of corrections to the electronic energy:
(perhaps to be used in another calculation)
Total thermal correction                  0.02171080 Eh      13.62 kcal/mol
Non-thermal (ZPE) correction              0.48368021 Eh     303.51 kcal/mol
-----------------------------------------------------------------------
Total correction                          0.50539100 Eh     317.14 kcal/mol


--------
ENTHALPY
--------

The enthalpy is H = U + kB*T
                kB is Boltzmann's constant
Total thermal energy              ...   -914.43626438 Eh 
Thermal Enthalpy correction       ...      0.00094421 Eh       0.59 kcal/mol
-----------------------------------------------------------------------
Total Enthalpy                    ...   -914.43532017 Eh


Note: Only C1 symmetry has been detected, increase convergence thresholds 
      if your molecule has a higher symmetry. Symmetry factor of 1.0 is   
      used for the rotational entropy correction. 
 

Note: Rotational entropy computed according to Herzberg 
Infrared and Raman Spectra, Chapter V,1, Van Nostrand Reinhold, 1945 
Point Group:  C1, Symmetry Number:   1  
Rotational constants in cm-1:     0.012224     0.006776     0.005731 

Vibrational entropy computed according to the QRRHO of S. Grimme
Chem.Eur.J. 2012 18 9955 using a reference frequency of 100.0 cm-1


-------
ENTROPY
-------

The entropy contributions are T*S = T*(S(el)+S(vib)+S(rot)+S(trans))
     S(el)   - electronic entropy
     S(vib)  - vibrational entropy
     S(rot)  - rotational entropy
     S(trans)- translational entropy
The entropies will be listed as multiplied by the temperature to get
units of energy

Electronic entropy                ...      0.00000000 Eh      0.00 kcal/mol
Vibrational entropy               ...      0.03219169 Eh     20.20 kcal/mol
Rotational entropy                ...      0.01638473 Eh     10.28 kcal/mol
Translational entropy             ...      0.02047495 Eh     12.85 kcal/mol
-----------------------------------------------------------------------
Final entropy term                ...      0.06905136 Eh     43.33 kcal/mol

In case the symmetry of your molecule has not been determined correctly
or in case you have a reason to use a different symmetry number we print 
out the resulting rotational entropy values for sn=1,12:

 non-linear molecules -----------------------------------
|  sn= 1 | S(rot)=       0.01638473 Eh     10.28 kcal/mol|
|  sn= 2 | S(rot)=       0.01573027 Eh      9.87 kcal/mol|
|  sn= 3 | S(rot)=       0.01534744 Eh      9.63 kcal/mol|
|  sn= 4 | S(rot)=       0.01507581 Eh      9.46 kcal/mol|
|  sn= 5 | S(rot)=       0.01486513 Eh      9.33 kcal/mol|
|  sn= 6 | S(rot)=       0.01469298 Eh      9.22 kcal/mol|
|  sn= 7 | S(rot)=       0.01454744 Eh      9.13 kcal/mol|
|  sn= 8 | S(rot)=       0.01442136 Eh      9.05 kcal/mol|
|  sn= 9 | S(rot)=       0.01431015 Eh      8.98 kcal/mol|
|  sn=10 | S(rot)=       0.01421067 Eh      8.92 kcal/mol|
|  sn=11 | S(rot)=       0.01412068 Eh      8.86 kcal/mol|
|  sn=12 | S(rot)=       0.01403853 Eh      8.81 kcal/mol|
 linear molecules ---------------------------------------
|  Dinfh | S(rot)=       0.01019953 Eh      6.40 kcal/mol|
|  Cinfv | S(rot)=       0.01085398 Eh      6.81 kcal/mol|
 --------------------------------------------------------


-------------------
GIBBS FREE ENERGY
-------------------

The Gibbs free energy is G = H - T*S

Total enthalpy                    ...   -914.43532017 Eh 
Total entropy correction          ...     -0.06905136 Eh    -43.33 kcal/mol
-----------------------------------------------------------------------
Final Gibbs free energy         ...   -914.50437153 Eh

For completeness - the Gibbs free energy minus the electronic energy
G-E(el)                           ...      0.43728385 Eh    274.40 kcal/mol


Maximum memory used throughout the entire PROP-calculation: 388.2 MB

--------------------------------
SUGGESTED CITATIONS FOR THIS RUN
--------------------------------

Below you find a list of papers that are relevant to this ORCA run
We neither can nor want to force you to cite these papers, but we appreciate if you do
You receive ORCA, which is the product of decades of hard work by many enthusiastic individuals, for free
The only thing we kindly ask in return is that you cite our papers,
We deeply appreciate it, if you show your appreciation for ORCA by not just citing the generic ORCA reference.

Please note that relegating all ORCA citations to the supporting information does *not* help us.
SI sections are not indexed - citations you put there will not count into any citation statistics
But we need these citations in order to attract the funding resources that allow us to do what we are doing

Therefore, if you are a happy ORCA user, please consider citing a few of the papers listed below in the main body of your paper

In addition to the list printed below, the program has created the file input.bibtex that contains the list in bibtex format
You can import this file easily into all common literature databanks and citation aid programs


List of essential papers. We consider these as the minimum necessary citations

  1. Neese,F.
     Software update: the ORCA program system, version 5.0
     WIRES Comput. Molec. Sci., 2022 12(1)e1606
     doi.org/10.1002/wcms.1606

List of papers to cite with high priority. The work reported in these papers was absolutely
necessary for this run to complete.
Our perspective: the developers of density functionals and basis sets usually get cited in chemistry papers
Good! But without the algorithms to do something with them, the functionals or basis sets would not do anything.
Hence, in our opinion, the algorithm design and method developments papers are equally worthy of getting cited

  1. Neese,F.
     An improvement of the resolution of the identity approximation for the formation of the Coulomb matrix
     J. Comp. Chem., 2003 24(14)1740-1747
     doi.org/10.1002/jcc.10318
  2. Neese,F.; Wennmohs,F.; Hansen,A.; Becker,U.
     Efficient, approximate and parallel Hartree-Fock and hybrid DFT calculations. A 'chain-of-spheres' algorithm for the Hartree-Fock exchange
     Chem. Phys., 2009 356(1-3)98-109
     doi.org/10.1016/j.chemphys.2008.10.036
  3. Bykov,D.; Petrenko,T.; Izsak,R.; Kossmann,S.; Becker,U.; Valeev,E.; Neese,F.
     Efficient implementation of the analytic second derivatives of Hartree-Fock and hybrid DFT energies: a detailed analysis of different approximations
     Molec. Phys., 2015 113 1961-1977
     doi.org/10.1080/00268976.2015.1025114
  4. Helmich-Paris,B.; de Souza,B.; Neese,F.; Izsák,R.
     An improved chain of spheres for exchange algorithm
     J. Chem. Phys., 2021 155 104109
     doi.org/doi: 10.1063/5.0058766.
  5. Neese,F.
     The SHARK Integral Generation and Digestion System
     J. Comp. Chem., 2022  1-16
     doi.org/10.1002/jcc.26942
  6. Grimme,S.; Antony,J.; Ehrlich,S.; Krieg,H.
     A consistent and accurate ab initio parametrization of density functional dispersion correction (DFT-D) for the 94 elements H-Pu
     J. Chem. Phys., 2010 132 154104
     doi.org/10.1063/1.3382344

List of suggested additional citations. These are papers that are important in the 'surrounding' of 
of this run, or papers that preceded the highly important papers. If you like your results we are grateful for a citation.

  1. Izsak,R.; Neese,F.
     An overlap fitted chain of spheres exchange method
     J. Chem. Phys., 2011 135 144105
     doi.org/10.1063/1.3646921
  2. Izsak,R.; Hansen,A.; Neese,F.
     The resolution of identity and chain of spheres approximations for the LPNO-CCSD singles Fock term
     Molec. Phys., 2012 110 2413-2417
     doi.org/10.1080/00268976.2012.687466
  3. Neese,F.
     The ORCA program system
     WIRES Comput. Molec. Sci., 2012 2(1)73-78
     doi.org/10.1002/wcms.81
  4. Izsak,R.; Neese,F.; Klopper,W.
     Robust fitting techniques in the chain of spheres approximation to the Fock exchange: The role of the complementary space
     J. Chem. Phys., 2013 139 
     doi.org/10.1063/1.4819264
  5. Neese,F.
     Software update: the ORCA program system, version 4.0
     WIRES Comput. Molec. Sci., 2018 8(1)1-6
     doi.org/10.1002/wcms.1327
  6. Neese,F.; Wennmohs,F.; Becker,U.; Riplinger,C.
     The ORCA quantum chemistry program package
     J. Chem. Phys., 2020 152 Art. No. L224108
     doi.org/10.1063/5.0004608

List of optional additional citations

  1. Neese,F.
     Approximate second-order SCF convergence for spin unrestricted wavefunctions
     Chem. Phys. Lett., 2000 325(1-3)93-98
     doi.org/10.1016/s0009-2614(00)00662-x

Timings for individual modules:

Sum of individual times          ...     2258.435 sec (=  37.641 min)
Startup calculation              ...      113.758 sec (=   1.896 min)   5.0 %
SCF iterations                   ...     1157.230 sec (=  19.287 min)  51.2 %
Property integrals               ...      138.938 sec (=   2.316 min)   6.2 %
SCF Response                     ...      213.062 sec (=   3.551 min)   9.4 %
Property calculations            ...      199.152 sec (=   3.319 min)   8.8 %
SCF Gradient evaluation          ...      434.906 sec (=   7.248 min)  19.3 %
Geometry relaxation              ...        1.390 sec (=   0.023 min)   0.1 %
                             ****ORCA TERMINATED NORMALLY****
TOTAL RUN TIME: 0 days 0 hours 48 minutes 25 seconds 938 msec
