
                                 *****************
                                 * O   R   C   A *
                                 *****************

                                            #,                                       
                                            ###                                      
                                            ####                                     
                                            #####                                    
                                            ######                                   
                                           ########,                                 
                                     ,,################,,,,,                         
                               ,,#################################,,                 
                          ,,##########################################,,             
                       ,#########################################, ''#####,          
                    ,#############################################,,   '####,        
                  ,##################################################,,,,####,       
                ,###########''''           ''''###############################       
              ,#####''   ,,,,##########,,,,          '''####'''          '####       
            ,##' ,,,,###########################,,,                        '##       
           ' ,,###''''                  '''############,,,                           
         ,,##''                                '''############,,,,        ,,,,,,###''
      ,#''                                            '''#######################'''  
     '                                                          ''''####''''         
             ,#######,   #######,   ,#######,      ##                                
            ,#'     '#,  ##    ##  ,#'     '#,    #''#        ,####,    ,#,          
            ##       ##  ##   ,#'  ##            #'  '#       #'       ,# #          
            ##       ##  #######   ##           ,######,      #####,      #          
            '#,     ,#'  ##    ##  '#,     ,#' ,#      #,     #,   #      #          
             '#######'   ##     ##  '#######'  #'      '#     '####' #    #          



                #########################################################
                #                        -***-                          #
                #          Department of theory and spectroscopy        #
                #                                                       #
                #                      Frank Neese                      #
                #                                                       #
                #     Directorship, Architecture, Infrastructure        #
                #                    SHARK, DRIVERS                     #
                #        Core code/Algorithms in most modules           #
                #                                                       #
                #        Max Planck Institute fuer Kohlenforschung      #
                #                Kaiser Wilhelm Platz 1                 #
                #                 D-45470 Muelheim/Ruhr                 #
                #                      Germany                          #
                #                                                       #
                #                  All rights reserved                  #
                #                        -***-                          #
                #########################################################


                         Program Version 6.1.0  -  RELEASE   -
                                (GIT: $679e74b$)
                          ($2025-06-10 18:02:51 +0200$)


 With contributions from (in alphabetic order):
[Max-Planck-Institut fuer Kohlenforschung]                               
  Daniel Aravena         : Magnetic Suceptibility                        
  Michael Atanasov       : Ab Initio Ligand Field Theory (pilot matlab implementation)
  Alexander A. Auer      : GIAO ZORA, VPT2 properties, NMR spectrum      
  Ute Becker             : All parallelization in ORCA, NUMFREQ, NUMCALC 
  Giovanni Bistoni       : ED, misc. LED, open-shell LED, HFLD           
  Dmytro Bykov           : pre 5.0 version of the SCF Hessian            
  Marcos Casanova-Páez   : Triplet and SCS-CIS(D). UHF-(DLPNO)-IP/EA/STEOM-CCSD. UHF-CVS-IP/STEOM-CCSD   
  Vijay G. Chilkuri      : MRCI spin determinant printing, contributions to CSF-ICE 
  Pauline Colinet        : FMM embedding                                 
  Dipayan Datta          : RHF DLPNO-CCSD density                        
  Achintya Kumar Dutta   : EOM-CC, STEOM-CC                              
  Nicolas Foglia         : Exact transition moments, OPA infrastructure, MCD improvements    
  Dmitry Ganyushin       : Spin-Orbit,Spin-Spin,Magnetic field MRCI      
  Miquel Garcia-Rates    : C-PCM and meta-GGA Hessian, CCSD/C-PCM, Gaussian charge scheme 
  Tiago L. C. Gouveia    : GS-ROHF, GS-ROCIS                             
  Yang Guo               : DLPNO-NEVPT2, F12-NEVPT2, CIM, IAO-localization        
  Andreas Hansen         : Spin unrestricted coupled pair/coupled cluster methods 
  Ingolf Harden          : AUTO-CI MPn and infrastructure                
  Benjamin Helmich-Paris : MC-RPA, TRAH-(SCF,CASSCF), AVAS, COSX integrals, SCF dyn. polar., MC-PDFT, srDFT 
  Lee Huntington         : MR-EOM, pCC                                   
  Robert Izsak           : Overlap fitted RIJCOSX, COSX-SCS-MP3, EOM     
  Riya Kayal             : Wick's Theorem for AUTO-CI, AUTO-CI UHF-CCSDT 
  Emily Kempfer          : AUTO-CI RHF CISDT and CCSDT, approximate NEVPT4
  Christian Kollmar      : KDIIS, OOCD, Brueckner-CCSD(T), CCSD density, CASPT2, CASPT2-K, improved NEVPT2 
  Axel Koslowski         : Symmetry handling                             
  Simone Kossmann        : meta-GGA functionals, TD-DFT gradient, OOMP2, (MP2 Hessian; deprecated post 5.0) 
  Lucas Lang             : DCDCAS, Hyperfine gauge corrections, ICE-SOC+SSC
  Marvin Lechner         : AUTO-CI (C++ implementation), FIC-MRCC        
  Spencer Leger          : CASSCF response                               
  Dagmar Lenk            : GEPOL surface, SMD, ORCA-2-JSON               
  Dimitrios Liakos       : Extrapolation schemes; Compound Job, Property file
  Dimitrios Manganas     : Further ROCIS development; embedding schemes. LFT, Crystal Embedding 
  Dimitrios Pantazis     : SARC Basis sets                               
  Anastasios Papadopoulos: AUTO-CI, single reference methods and gradients 
  Taras Petrenko         : pre 6.0 DFT Hessian and TD-DFT gradient,  ECA, NRVS 
  Petra Pikulova         : Analytic Raman intensities                    
  Peter Pinski           : DLPNO-MP2, DLPNO-MP2 Gradient                 
  Shashank Vittal Rao    : ES-AILFT, MagRelax                            
  Christoph Reimann      : Effective Core Potentials                     
  Marius Retegan         : Local ZFS, SOC                                
  Christoph Riplinger    : Optimizer, TS searches, QM/MM, DLPNO-CCSD(T), (RO)-DLPNO pert. Triples 
  Michael Roemelt        : Original ROCIS implementation, recursive CI coupling coefficients
  Masaaki Saitow         : Open-shell DLPNO-CCSD energy and density      
  Barbara Sandhoefer     : DKH picture change effects                    
  Yorick L. A. Schmerwitz: GMF and freeze-and-release deltaSCF, NEB S-IDPP initial path                    
  Kantharuban Sivalingam : CASSCF convergence/infrastructure, NEVPT2, NEVPT3, NEVPT4(SD), FIC-MRCI and CEPA variants
  Bernardo de Souza      : ESD, SOC TD-DFT                               
  Georgi L. Stoychev     : AutoAux, RI-MP2 NMR, DLPNO-MP2 response, X2C  
  Van Anh Tran           : RI-MP2 g-tensors                              
  Willem Van den Heuvel  : Paramagnetic NMR                              
  Zikuan Wang            : NOTCH, Electric field optimization            
  Frank Wennmohs         : Technical directorship and infrastructure     
  Hang Xu                : AUTO-CI-Response properties                   
                                                                         
[FACCTs GmbH]                                                            
  Markus Bursch, Nicolas Foglia, Miquel Garcia-Rates, Ingolf Harden, Hagen Neugebauer, Anastasios Papadopoulos, 
  Christoph Riplinger, Bernardo de Souza, Georgi L. Stoychev                                                    
                                                                 
  APM, various basis sets, CI-OPT, improved COSX, DLPNO-Multilevel,           
  DOCKER, DRACO, updates on ESD, Fragmentator, GOAT, IRC, LR-CPCM, L-BFGS, MBIS, meta-GGA TD-DFT gradient, ML-optimized integration grids, 
  MM, NACMEs, nearIR, NEB, NEB-TS, NL-DFT gradient (VV10), 2- and 3-layer-ONIOM, interface openCOSMO-RS, QMMM,   
  Crystal-QMMM, RESP, rigid body optimization, SF, symmetry and pop. for TD-DFT, various functionals, SOLVATOR                                   
                                                                         
[Other institutions]                                                     
  V. Asgeirsson          : NEB                                           
  Christoph Bannwarth    : sTDA-DFT, sTD-DFT, PBEh-3c, B97-3c, D3        
  Giovanni Bistoni       : ETS/NOCV, ADLD/ADEX, COVALED                  
  Martin Brehm           : Molecular dynamics                            
  Ronald Cardenas        : ETS/NOCV                                      
  Martina Colucci        : COVALED                                       
  Sebastian Ehlert       : rSCAN, r2SCAN, r2SCAN-3c, D4, dhf basis sets  
  Marvin Friede          : D4 for Fr, Ra, Ac-Lr                          
  Lars Goerigk           : TD-DFT with DH, B97 family of functionals     
  Stefan Grimme          : VdW corrections, initial TS optimization, DFT functionals, gCP, sTDA/sTD-DF 
  Waldemar Hujo          : DFT-NL                                        
  H. Jonsson             : NEB                                           
  Holger Kruse           : gCP                                           
  Marcel Mueller         : wB97X-3c, vDZP basis set                      
  Hagen Neugebauer       : wr2SCAN, Native XTB                           
  Gianluca Regni         : ADLD/ADEX                                     
  Tobias Risthaus        : pre 6.0 range-separated hybrid DFT and stability analysis
  Lukas Wittmann         : regularized MP2, r2SCAN double-hybrids, wr2SCAN        
                                                                         
We gratefully acknowledge several colleagues who have allowed us to      
interface, adapt or use parts of their codes:                            
  Ed Valeev, F. Pavosevic, A. Kumar             : LibInt (2-el integral package), F12 methods 
  Garnet Chan, S. Sharma, J. Yang, R. Olivares  : DMRG                   
  Ulf Ekstrom                                   : XCFun DFT Library      
  Mihaly Kallay                                 : mrcc  (arbitrary order and MRCC methods)
  Frank Weinhold                                : gennbo (NPA and NBO analysis)           
  Simon Mueller                                 : openCOSMO-RS                            
  Christopher J. Cramer and Donald G. Truhlar   : smd solvation model                     
  S Lehtola, MJT Oliveira, MAL Marques          : LibXC Library                           
  Liviu Ungur et al                             : ANISO software                          


 Your calculation uses the libint2 library for the computation of 2-el integrals
 For citations please refer to: http://libint.valeyev.net

 Your ORCA version has been built with support for libXC version: 7.0.0
 For citations please refer to: https://libxc.gitlab.io

 This ORCA versions uses:
   CBLAS   interface :  Fast vector & matrix operations
   LAPACKE interface :  Fast linear algebra routines
   SCALAPACK package :  Parallel linear algebra routines
   Shared memory     :  Shared parallel matrices
   BLAS/LAPACK       :  OpenBLAS 0.3.29  USE64BITINT DYNAMIC_ARCH NO_AFFINITY Zen SINGLE_THREADED
        Core in use  :  Zen
   Copyright (c) 2011-2014, The OpenBLAS Project


  ***********************************
  * Starting time: Tue Jul 29 09:21:41 2025
  * Host name:     node067.cluster
  * Process ID:    2394947
  * Working dir.:  /scratch/53216235/_tvbdiv
  ***********************************

NOTE: MaxCore=4096 MB was set to SCF,MP2,MDCI,CIPSI,MRCI,RASCI and CIS
      => If you want to overwrite this, your respective input block should be placed after the MaxCore statement
Your calculation utilizes the atom-pairwise dispersion correction
with the zero-damping scheme (D30)


XCFun DFT library Copyright 2009-2010 Ulf Ekstrom and contributors.
See http://admol.org/xcfun for more information.
This is free software; see the source code for copying conditions.
There is ABSOLUTELY NO WARRANTY; not even for MERCHANTABILITY or FITNESS FOR A PARTICULAR PURPOSE.
For details see the documentation.
Scientific users of this library should cite U. Ekstrom, L. Visscher, R. Bast, A. J. Thorvaldsen and K. Ruud;
J.Chem.Theor.Comp. 2010, DOI: 10.1021/ct100117s
XCFun Version 0.99 

Warning: RI is on but no J-basis has been assigned. Assigning Def2/J (nothing to worry about!)
================================================================================

----- Orbital basis set information -----
Your calculation utilizes the basis: 6-31G**
   H-He, Li-Ne : W. J. Hehre, R. Ditchfield and J.A. Pople, J. Chem. Phys. 56, 2257 (1972).
                 Note: He and Ne are unpublished basis sets taken from the Gaussian program.
                 Note: Li and B from J. D. Dill and J. A. Pople, J. Chem. Phys. 62, 2921 (1975).
   Na - Ar     : M. M. Francl, W. J. Pietro, W. J. Hehre, J. S. Binkley, M. S. Gordon, 
                 D. J. DeFrees and J. A. Pople, J. Chem. Phys. 77, 3654 (1982).
   K - Zn      : V. A. Rassolov, J. A. Pople, M. A. Ratner, and T. L. Windus, J. Chem. Phys. 109, 1223 (1998).

----- AuxJ basis set information -----
Your calculation utilizes the auxiliary basis: def2/J
   H-Rn: F. Weigend, Phys. Chem. Chem. Phys. 8, 1057 (2006).
   Fr-Lr: K. Eichkorn, F. Weigend, O. Treutler, R. Ahlrichs; Theor. Chem. Acc. 97, 119 (1997).

================================================================================
                                        WARNINGS
                       Please study these warnings very carefully!
================================================================================


WARNING: Geometry Optimization
  ===> : Switching off AutoStart
         For restart on a previous wavefunction, please use MOREAD

================================================================================
                                       INPUT FILE
================================================================================
NAME = input.inp
|  1> # Automatically generated ORCA input
|  2> 
|  3> # Number of cores
|  4> %pal nprocs 20 end
|  5> # RAM per core
|  6> %maxcore 4096
|  7> 
|  8> ! wB97X-D3 
|  9> ! 6-31G** 
| 10> ! TightSCF 
| 11> ! SlowConv 
| 12> ! OptTS 
| 13> ! Freq 
| 14> ! NoSym 
| 15> 
| 16> %geom
| 17>   Calc_Hess true
| 18> end
| 19> %Output
| 20>   JSONPropFile True
| 21> End
| 22> 
| 23> 
| 24> *xyz 0 1 
| 25> C        -2.10563800     -1.94736800      1.18538200
| 26> C        -0.76295800     -1.59238300      1.10328800
| 27> C        -0.35051800     -0.30626100      0.72404400
| 28> C        -1.35081500      0.64278500      0.41503900
| 29> C        -2.69952700      0.27363900      0.49937800
| 30> C        -3.08170000     -1.00725300      0.88276300
| 31> H        -2.38448400     -2.95532400      1.48052600
| 32> H        -0.01279800     -2.34446400      1.33582800
| 33> H        -3.46196200      1.00732000      0.25997200
| 34> H        -4.13572600     -1.26503600      0.94029800
| 35> B         1.20487200      0.08191000      0.66320500
| 36> H         1.68994700     -0.98639900     -0.05546400
| 37> C         1.98192300      0.25177000      2.06976700
| 38> C         1.65405000     -0.23553100      3.31736500
| 39> C         2.35359300      0.38608200      4.38449700
| 40> H         0.92104100     -1.02359500      3.45083700
| 41> C         3.20991500      1.35766200      3.93816800
| 42> H         2.22262300      0.13480300      5.43042300
| 43> H         3.85420500      1.99099200      4.53392600
| 44> H         1.57968000      0.89934700     -0.12938800
| 45> B         2.53450700     -1.41705300      0.78079200
| 46> O         3.84235400     -1.26577000      0.41681800
| 47> O         2.25851200     -2.59095600      1.43616800
| 48> C         4.58124100     -2.25774100      1.17010600
| 49> C         3.48840300     -3.35516300      1.44530800
| 50> C         5.75017000     -2.72468200      0.31526700
| 51> H         6.44754900     -1.89675000      0.16530400
| 52> H         6.28841000     -3.53868200      0.81144300
| 53> H         5.41804000     -3.06889900     -0.66539300
| 54> C         5.09494100     -1.58366900      2.44177400
| 55> H         5.68837400     -0.71011700      2.16132200
| 56> H         4.27563400     -1.24224600      3.08023000
| 57> H         5.72878500     -2.26095200      3.02129900
| 58> C         3.61054500     -4.04841700      2.79424300
| 59> H         2.80968900     -4.78433500      2.90360400
| 60> H         4.56786300     -4.57314500      2.87473000
| 61> H         3.52846500     -3.33452300      3.61555300
| 62> C         3.36688000     -4.38400000      0.32220500
| 63> H         4.22851100     -5.05715400      0.29732700
| 64> H         2.46604100     -4.98029000      0.48695800
| 65> H         3.27587300     -3.89588000     -0.65213900
| 66> N        -0.97540800      1.96830200      0.01609000
| 67> C        -1.05799300      2.27430400     -1.43525600
| 68> C        -1.14351400      3.04838200      1.02060100
| 69> S         3.16447800      1.51174400      2.23665200
| 70> C        -0.18552600      4.19459500      0.64596200
| 71> C        -0.72176700      2.53280100      2.40353400
| 72> C        -2.58219700      3.59541200      1.17632100
| 73> C        -0.32385600      4.64174700     -0.80431200
| 74> H         0.84056600      3.84036900      0.81099000
| 75> H        -0.35246300      5.03510200      1.33063000
| 76> C        -0.10555400      3.44893500     -1.72760000
| 77> H         0.40810100      5.42652400     -1.02648000
| 78> H        -1.31151000      5.08845700     -0.97676900
| 79> H         0.92276500      3.08733800     -1.59869800
| 80> H        -0.21710300      3.74377100     -2.77820700
| 81> C        -2.47422200      2.60278200     -1.96390900
| 82> C        -0.56440700      1.06566600     -2.24669800
| 83> H        -0.51915400      1.34092800     -3.30523200
| 84> H        -1.23635400      0.20853100     -2.15099800
| 85> H         0.43410900      0.75820100     -1.93085400
| 86> H        -2.44353200      2.70133100     -3.05446200
| 87> H        -2.87919600      3.53493100     -1.56753100
| 88> H        -3.17681500      1.79856700     -1.72981100
| 89> H         0.29395800      2.13599800      2.38416300
| 90> H        -1.38862700      1.74674600      2.76866700
| 91> H        -0.75174300      3.36030900      3.11945700
| 92> H        -2.95085100      4.10553500      0.28552800
| 93> H        -2.61151900      4.31735700      1.99952200
| 94> H        -3.28296500      2.79370500      1.42426800
| 95> *
| 96> 
| 97> 
| 98>                          ****END OF INPUT****
================================================================================

                       *****************************
                       * Geometry Optimization Run *
                       *****************************

Geometry optimization settings:
Update method            Update   .... Bofill
Choice of coordinates    CoordSys .... (2022) Redundant Internals
Initial Hessian          InHess   .... Almloef's Model
Max. no of cycles        MaxIter  .... 210

Convergence Tolerances:
Energy Change            TolE     ....  5.0000e-06 Eh
Max. Gradient            TolMAXG  ....  3.0000e-04 Eh/bohr
RMS Gradient             TolRMSG  ....  1.0000e-04 Eh/bohr
Max. Displacement        TolMAXD  ....  4.0000e-03 bohr
RMS Displacement         TolRMSD  ....  2.0000e-03 bohr
Strict Convergence                .... False

------------------------------------------------------------------------------
                        ORCA OPTIMIZATION COORDINATE SETUP
------------------------------------------------------------------------------

The optimization will be done in redundant internal coordinates (2022)
Making redundant internal coordinates   ...  (2022 redundants) done
Following TS mode number                ...     0
Evaluating the initial hessian          ...  (Is done on the fly) done
Evaluating the coordinates              ...  done
Calculating the B-matrix                .... done
Calculating the G-matrix                .... done
The number of degrees of freedom        ....  385

    -----------------------------------------------------------------
                    Redundant Internal Coordinates


    -----------------------------------------------------------------
         Definition                    Initial Value    d2E/dq (diagonal element)
    -----------------------------------------------------------------
      1. B(C   1,C   0)                  1.3912         0.000000   
      2. B(C   2,C   1)                  1.4029         0.000000   
      3. B(C   3,C   2)                  1.4131         0.000000   
      4. B(C   4,C   3)                  1.4009         0.000000   
      5. B(C   5,C   4)                  1.3906         0.000000   
      6. B(C   5,C   0)                  1.3886         0.000000   
      7. B(H   6,C   0)                  1.0867         0.000000   
      8. B(H   7,C   1)                  1.0874         0.000000   
      9. B(H   8,C   4)                  1.0849         0.000000   
     10. B(H   9,C   5)                  1.0866         0.000000   
     11. B(B  10,C   2)                  1.6042         0.000000   
     12. B(H  11,B  10)                  1.3759         0.000000   
     13. B(C  12,B  10)                  1.6159         0.000000   
     14. B(C  13,C  12)                  1.3789         0.000000   
     15. B(C  14,C  13)                  1.4193         0.000000   
     16. B(H  15,C  13)                  1.0845         0.000000   
     17. B(C  16,C  14)                  1.3698         0.000000   
     18. B(H  17,C  14)                  1.0836         0.000000   
     19. B(H  18,C  16)                  1.0822         0.000000   
     20. B(H  19,B  10)                  1.1987         0.000000   
     21. B(B  20,H  11)                  1.2641         0.000000   
     22. B(B  20,B  10)                  2.0071         0.000000   
     23. B(O  21,B  20)                  1.3660         0.000000   
     24. B(O  22,B  20)                  1.3725         0.000000   
     25. B(C  23,O  21)                  1.4482         0.000000   
     26. B(C  24,C  23)                  1.5730         0.000000   
     27. B(C  24,O  22)                  1.4480         0.000000   
     28. B(C  25,C  23)                  1.5216         0.000000   
     29. B(H  26,C  25)                  1.0928         0.000000   
     30. B(H  27,C  25)                  1.0948         0.000000   
     31. B(H  28,C  25)                  1.0911         0.000000   
     32. B(C  29,C  23)                  1.5282         0.000000   
     33. B(H  30,C  29)                  1.0927         0.000000   
     34. B(H  31,C  29)                  1.0934         0.000000   
     35. B(H  32,C  29)                  1.0938         0.000000   
     36. B(C  33,C  24)                  1.5216         0.000000   
     37. B(H  34,C  33)                  1.0931         0.000000   
     38. B(H  35,C  33)                  1.0947         0.000000   
     39. B(H  36,C  33)                  1.0913         0.000000   
     40. B(C  37,C  24)                  1.5280         0.000000   
     41. B(H  38,C  37)                  1.0937         0.000000   
     42. B(H  39,C  37)                  1.0928         0.000000   
     43. B(H  40,C  37)                  1.0936         0.000000   
     44. B(N  41,C   3)                  1.4343         0.000000   
     45. B(C  42,N  41)                  1.4856         0.000000   
     46. B(C  43,N  41)                  1.4845         0.000000   
     47. B(S  44,C  16)                  1.7091         0.000000   
     48. B(S  44,C  12)                  1.7360         0.000000   
     49. B(C  45,C  43)                  1.5401         0.000000   
     50. B(C  46,C  43)                  1.5350         0.000000   
     51. B(C  47,C  43)                  1.5470         0.000000   
     52. B(C  48,C  45)                  1.5239         0.000000   
     53. B(H  49,C  45)                  1.0980         0.000000   
     54. B(H  50,C  45)                  1.0969         0.000000   
     55. B(C  51,C  48)                  1.5241         0.000000   
     56. B(C  51,C  42)                  1.5402         0.000000   
     57. B(H  52,C  48)                  1.0959         0.000000   
     58. B(H  53,C  48)                  1.0976         0.000000   
     59. B(H  54,C  51)                  1.0976         0.000000   
     60. B(H  55,C  51)                  1.0969         0.000000   
     61. B(C  56,C  42)                  1.5470         0.000000   
     62. B(C  57,C  42)                  1.5372         0.000000   
     63. B(H  58,C  57)                  1.0947         0.000000   
     64. B(H  59,C  57)                  1.0933         0.000000   
     65. B(H  60,C  57)                  1.0915         0.000000   
     66. B(H  61,C  56)                  1.0954         0.000000   
     67. B(H  62,C  56)                  1.0909         0.000000   
     68. B(H  63,C  56)                  1.0933         0.000000   
     69. B(H  64,C  46)                  1.0907         0.000000   
     70. B(H  65,C  46)                  1.0936         0.000000   
     71. B(H  66,C  46)                  1.0946         0.000000   
     72. B(H  67,C  47)                  1.0907         0.000000   
     73. B(H  68,C  47)                  1.0953         0.000000   
     74. B(H  69,C  47)                  1.0933         0.000000   
     75. A(C   1,C   0,H   6)          120.0234         0.000000   
     76. A(C   5,C   0,H   6)          120.4523         0.000000   
     77. A(C   1,C   0,C   5)          119.5238         0.000000   
     78. A(C   0,C   1,C   2)          122.2498         0.000000   
     79. A(C   2,C   1,H   7)          119.2792         0.000000   
     80. A(C   0,C   1,H   7)          118.4696         0.000000   
     81. A(C   1,C   2,B  10)          121.1395         0.000000   
     82. A(C   3,C   2,B  10)          121.0328         0.000000   
     83. A(C   1,C   2,C   3)          117.8220         0.000000   
     84. A(C   2,C   3,N  41)          119.7517         0.000000   
     85. A(C   4,C   3,N  41)          120.8160         0.000000   
     86. A(C   2,C   3,C   4)          119.4321         0.000000   
     87. A(C   5,C   4,H   8)          119.3826         0.000000   
     88. A(C   3,C   4,C   5)          121.5959         0.000000   
     89. A(C   3,C   4,H   8)          119.0215         0.000000   
     90. A(C   0,C   5,C   4)          119.3759         0.000000   
     91. A(C   4,C   5,H   9)          119.9805         0.000000   
     92. A(C   0,C   5,H   9)          120.6433         0.000000   
     93. A(C  12,B  10,H  19)          110.7022         0.000000   
     94. A(C   2,B  10,C  12)          117.3008         0.000000   
     95. A(C   2,B  10,B  20)          117.3452         0.000000   
     96. A(H  11,B  10,B  20)           38.4812         0.000000   
     97. A(C  12,B  10,B  20)           73.0791         0.000000   
     98. A(H  11,B  10,H  19)           94.2370         0.000000   
     99. A(H  11,B  10,C  12)          111.5154         0.000000   
    100. A(C   2,B  10,H  11)          100.0060         0.000000   
    101. A(C   2,B  10,H  19)          119.5534         0.000000   
    102. A(H  19,B  10,B  20)          109.9305         0.000000   
    103. A(B  10,H  11,B  20)           98.8888         0.000000   
    104. A(B  10,C  12,C  13)          129.4989         0.000000   
    105. A(C  13,C  12,S  44)          109.3582         0.000000   
    106. A(B  10,C  12,S  44)          119.1789         0.000000   
    107. A(C  14,C  13,H  15)          123.9753         0.000000   
    108. A(C  12,C  13,H  15)          121.9277         0.000000   
    109. A(C  12,C  13,C  14)          114.0968         0.000000   
    110. A(C  16,C  14,H  17)          123.6770         0.000000   
    111. A(C  13,C  14,C  16)          111.9476         0.000000   
    112. A(C  13,C  14,H  17)          124.3720         0.000000   
    113. A(H  18,C  16,S  44)          120.7397         0.000000   
    114. A(C  14,C  16,S  44)          111.8209         0.000000   
    115. A(C  14,C  16,H  18)          127.4366         0.000000   
    116. A(O  21,B  20,O  22)          114.4879         0.000000   
    117. A(H  11,B  20,O  22)          118.2233         0.000000   
    118. A(B  10,B  20,O  22)          122.2433         0.000000   
    119. A(H  11,B  20,O  21)          115.1930         0.000000   
    120. A(B  10,B  20,O  21)          122.4082         0.000000   
    121. A(B  10,B  20,H  11)           42.6300         0.000000   
    122. A(B  20,O  21,C  23)          105.9046         0.000000   
    123. A(B  20,O  22,C  24)          106.4761         0.000000   
    124. A(C  25,C  23,C  29)          110.1589         0.000000   
    125. A(C  24,C  23,C  29)          113.3084         0.000000   
    126. A(O  21,C  23,C  29)          107.5900         0.000000   
    127. A(C  24,C  23,C  25)          114.7034         0.000000   
    128. A(O  21,C  23,C  25)          108.0549         0.000000   
    129. A(O  21,C  23,C  24)          102.3805         0.000000   
    130. A(O  22,C  24,C  33)          108.3148         0.000000   
    131. A(O  22,C  24,C  37)          106.4498         0.000000   
    132. A(O  22,C  24,C  23)          102.7554         0.000000   
    133. A(C  33,C  24,C  37)          110.5633         0.000000   
    134. A(C  23,C  24,C  37)          113.3547         0.000000   
    135. A(C  23,C  24,C  33)          114.6580         0.000000   
    136. A(H  27,C  25,H  28)          108.8108         0.000000   
    137. A(H  26,C  25,H  28)          108.0544         0.000000   
    138. A(C  23,C  25,H  28)          111.5869         0.000000   
    139. A(H  26,C  25,H  27)          108.1653         0.000000   
    140. A(C  23,C  25,H  27)          110.5641         0.000000   
    141. A(C  23,C  25,H  26)          109.5629         0.000000   
    142. A(H  31,C  29,H  32)          108.5551         0.000000   
    143. A(H  30,C  29,H  32)          108.4399         0.000000   
    144. A(C  23,C  29,H  32)          111.2581         0.000000   
    145. A(C  23,C  29,H  31)          111.8242         0.000000   
    146. A(C  23,C  29,H  30)          108.7609         0.000000   
    147. A(H  30,C  29,H  31)          107.8907         0.000000   
    148. A(H  35,C  33,H  36)          108.9061         0.000000   
    149. A(H  34,C  33,H  35)          108.0981         0.000000   
    150. A(C  24,C  33,H  36)          111.2922         0.000000   
    151. A(H  34,C  33,H  36)          108.0597         0.000000   
    152. A(C  24,C  33,H  35)          110.7194         0.000000   
    153. A(C  24,C  33,H  34)          109.6711         0.000000   
    154. A(H  39,C  37,H  40)          108.0158         0.000000   
    155. A(H  38,C  37,H  40)          108.6642         0.000000   
    156. A(C  24,C  37,H  40)          111.1598         0.000000   
    157. A(H  38,C  37,H  39)          108.4826         0.000000   
    158. A(C  24,C  37,H  39)          108.7935         0.000000   
    159. A(C  24,C  37,H  38)          111.6230         0.000000   
    160. A(C  42,N  41,C  43)          120.3251         0.000000   
    161. A(C   3,N  41,C  43)          117.0352         0.000000   
    162. A(C   3,N  41,C  42)          116.5879         0.000000   
    163. A(C  51,C  42,C  57)          107.5106         0.000000   
    164. A(N  41,C  42,C  57)          109.6282         0.000000   
    165. A(C  51,C  42,C  56)          109.8351         0.000000   
    166. A(N  41,C  42,C  56)          115.3725         0.000000   
    167. A(N  41,C  42,C  51)          107.9475         0.000000   
    168. A(C  56,C  42,C  57)          106.2916         0.000000   
    169. A(C  46,C  43,C  47)          106.4749         0.000000   
    170. A(C  45,C  43,C  47)          109.8639         0.000000   
    171. A(N  41,C  43,C  47)          115.5106         0.000000   
    172. A(C  45,C  43,C  46)          107.3516         0.000000   
    173. A(N  41,C  43,C  46)          109.5197         0.000000   
    174. A(N  41,C  43,C  45)          107.8449         0.000000   
    175. A(C  12,S  44,C  16)           92.7732         0.000000   
    176. A(H  49,C  45,H  50)          107.1951         0.000000   
    177. A(C  48,C  45,H  50)          110.8167         0.000000   
    178. A(C  43,C  45,H  50)          108.8925         0.000000   
    179. A(C  48,C  45,H  49)          108.8157         0.000000   
    180. A(C  43,C  45,H  49)          107.7362         0.000000   
    181. A(C  43,C  45,C  48)          113.1670         0.000000   
    182. A(C  43,C  46,H  66)          109.1353         0.000000   
    183. A(H  64,C  46,H  66)          108.1893         0.000000   
    184. A(H  65,C  46,H  66)          107.9576         0.000000   
    185. A(H  64,C  46,H  65)          108.1992         0.000000   
    186. A(C  43,C  46,H  65)          112.0058         0.000000   
    187. A(C  43,C  46,H  64)          111.2280         0.000000   
    188. A(H  68,C  47,H  69)          107.2009         0.000000   
    189. A(H  67,C  47,H  69)          108.1520         0.000000   
    190. A(C  43,C  47,H  69)          111.0765         0.000000   
    191. A(H  67,C  47,H  68)          107.2470         0.000000   
    192. A(C  43,C  47,H  68)          109.4880         0.000000   
    193. A(C  43,C  47,H  67)          113.4216         0.000000   
    194. A(H  52,C  48,H  53)          106.1230         0.000000   
    195. A(C  51,C  48,H  53)          110.6231         0.000000   
    196. A(C  45,C  48,H  53)          110.5253         0.000000   
    197. A(C  51,C  48,H  52)          109.9968         0.000000   
    198. A(C  45,C  48,H  52)          110.0244         0.000000   
    199. A(C  45,C  48,C  51)          109.5037         0.000000   
    200. A(H  54,C  51,H  55)          107.2358         0.000000   
    201. A(C  48,C  51,H  55)          110.8118         0.000000   
    202. A(C  42,C  51,H  55)          108.8989         0.000000   
    203. A(C  48,C  51,H  54)          108.7154         0.000000   
    204. A(C  42,C  51,H  54)          107.8059         0.000000   
    205. A(C  42,C  51,C  48)          113.1600         0.000000   
    206. A(C  42,C  56,H  62)          113.3991         0.000000   
    207. A(C  42,C  56,H  61)          109.4917         0.000000   
    208. A(H  62,C  56,H  63)          108.1915         0.000000   
    209. A(H  61,C  56,H  63)          107.2992         0.000000   
    210. A(C  42,C  56,H  63)          111.0375         0.000000   
    211. A(H  61,C  56,H  62)          107.1735         0.000000   
    212. A(H  59,C  57,H  60)          108.4257         0.000000   
    213. A(H  58,C  57,H  60)          108.2301         0.000000   
    214. A(C  42,C  57,H  60)          111.2532         0.000000   
    215. A(H  58,C  57,H  59)          107.8895         0.000000   
    216. A(C  42,C  57,H  59)          111.8926         0.000000   
    217. A(C  42,C  57,H  58)          109.0271         0.000000   
    218. D(H   7,C   1,C   0,H   6)      0.2587         0.000000   
    219. D(C   2,C   1,C   0,H   6)    179.8314         0.000000   
    220. D(H   7,C   1,C   0,C   5)   -179.4852         0.000000   
    221. D(C   2,C   1,C   0,C   5)      0.0875         0.000000   
    222. D(C   3,C   2,C   1,H   7)    179.3419         0.000000   
    223. D(B  10,C   2,C   1,C   0)    178.9081         0.000000   
    224. D(C   3,C   2,C   1,C   0)     -0.2274         0.000000   
    225. D(B  10,C   2,C   1,H   7)     -1.5226         0.000000   
    226. D(N  41,C   3,C   2,B  10)      1.1708         0.000000   
    227. D(N  41,C   3,C   2,C   1)   -179.6927         0.000000   
    228. D(C   4,C   3,C   2,B  10)   -179.0025         0.000000   
    229. D(C   4,C   3,C   2,C   1)      0.1341         0.000000   
    230. D(C   5,C   4,C   3,N  41)    179.9207         0.000000   
    231. D(H   8,C   4,C   3,C   2)   -179.9568         0.000000   
    232. D(H   8,C   4,C   3,N  41)     -0.1320         0.000000   
    233. D(C   5,C   4,C   3,C   2)      0.0958         0.000000   
    234. D(H   9,C   5,C   4,H   8)     -0.0058         0.000000   
    235. D(C   0,C   5,C   4,H   8)    179.8130         0.000000   
    236. D(H   9,C   5,C   4,C   3)    179.9413         0.000000   
    237. D(H   9,C   5,C   0,H   6)      0.2223         0.000000   
    238. D(C   0,C   5,C   4,C   3)     -0.2399         0.000000   
    239. D(H   9,C   5,C   0,C   1)    179.9651         0.000000   
    240. D(C   4,C   5,C   0,H   6)   -179.5952         0.000000   
    241. D(C   4,C   5,C   0,C   1)      0.1475         0.000000   
    242. D(H  19,B  10,C   2,C   3)    -31.5034         0.000000   
    243. D(C  12,B  10,C   2,C   3)    107.0857         0.000000   
    244. D(C  12,B  10,C   2,C   1)    -72.0221         0.000000   
    245. D(H  11,B  10,C   2,C   3)   -132.2394         0.000000   
    246. D(H  11,B  10,C   2,C   1)     48.6528         0.000000   
    247. D(H  19,B  10,C   2,C   1)    149.3889         0.000000   
    248. D(B  20,H  11,B  10,C   2)   -121.8462         0.000000   
    249. D(B  20,H  11,B  10,H  19)    117.1365         0.000000   
    250. D(B  20,H  11,B  10,C  12)      2.9169         0.000000   
    251. D(C  13,C  12,B  10,B  20)    -91.9966         0.000000   
    252. D(S  44,C  12,B  10,H  11)    103.8749         0.000000   
    253. D(C  13,C  12,B  10,H  19)    162.5811         0.000000   
    254. D(C  13,C  12,B  10,C   2)     20.5414         0.000000   
    255. D(C  13,C  12,B  10,H  11)    -93.8933         0.000000   
    256. D(S  44,C  12,B  10,C   2)   -141.6904         0.000000   
    257. D(H  15,C  13,C  12,S  44)    179.2327         0.000000   
    258. D(C  14,C  13,C  12,S  44)     -0.6132         0.000000   
    259. D(H  15,C  13,C  12,B  10)     15.6366         0.000000   
    260. D(C  14,C  13,C  12,B  10)   -164.2092         0.000000   
    261. D(H  17,C  14,C  13,H  15)     -0.0512         0.000000   
    262. D(H  17,C  14,C  13,C  12)    179.7910         0.000000   
    263. D(C  16,C  14,C  13,C  12)      0.4368         0.000000   
    264. D(C  16,C  14,C  13,H  15)   -179.4054         0.000000   
    265. D(S  44,C  16,C  14,C  13)     -0.0423         0.000000   
    266. D(S  44,C  16,C  14,H  17)   -179.4018         0.000000   
    267. D(H  18,C  16,C  14,H  17)     -0.0073         0.000000   
    268. D(H  18,C  16,C  14,C  13)    179.3522         0.000000   
    269. D(O  22,B  20,H  11,B  10)    108.1184         0.000000   
    270. D(O  21,B  20,B  10,H  19)     22.4029         0.000000   
    271. D(O  21,B  20,B  10,C  12)    -84.0208         0.000000   
    272. D(O  21,B  20,B  10,H  11)     93.1429         0.000000   
    273. D(O  21,B  20,B  10,C   2)    163.4966         0.000000   
    274. D(H  11,B  20,B  10,H  19)    -70.7400         0.000000   
    275. D(O  21,B  20,H  11,B  10)   -111.3152         0.000000   
    276. D(H  11,B  20,B  10,C  12)   -177.1637         0.000000   
    277. D(H  11,B  20,B  10,C   2)     70.3537         0.000000   
    278. D(C  23,O  21,B  20,H  11)   -157.0959         0.000000   
    279. D(C  23,O  21,B  20,O  22)    -15.0468         0.000000   
    280. D(C  23,O  21,B  20,B  10)    154.5446         0.000000   
    281. D(C  24,O  22,B  20,O  21)     -3.8981         0.000000   
    282. D(C  24,O  22,B  20,H  11)    136.9355         0.000000   
    283. D(C  24,O  22,B  20,B  10)   -173.5086         0.000000   
    284. D(C  29,C  23,O  21,B  20)    -94.1381         0.000000   
    285. D(C  25,C  23,O  21,B  20)    146.9414         0.000000   
    286. D(C  24,C  23,O  21,B  20)     25.5027         0.000000   
    287. D(C  33,C  24,C  23,C  29)    -29.1664         0.000000   
    288. D(C  33,C  24,C  23,O  21)   -144.7271         0.000000   
    289. D(O  22,C  24,C  23,C  29)     88.1198         0.000000   
    290. D(O  22,C  24,C  23,C  25)   -144.2005         0.000000   
    291. D(C  33,C  24,C  23,C  25)     98.5132         0.000000   
    292. D(O  22,C  24,C  23,O  21)    -27.4408         0.000000   
    293. D(C  37,C  24,O  22,B  20)   -100.0575         0.000000   
    294. D(C  33,C  24,O  22,B  20)    141.0279         0.000000   
    295. D(C  23,C  24,O  22,B  20)     19.3251         0.000000   
    296. D(H  27,C  25,C  23,C  29)     67.5601         0.000000   
    297. D(H  27,C  25,C  23,C  24)    -61.6999         0.000000   
    298. D(H  27,C  25,C  23,O  21)   -175.1645         0.000000   
    299. D(H  26,C  25,C  23,C  29)    -51.5633         0.000000   
    300. D(H  26,C  25,C  23,C  24)    179.1767         0.000000   
    301. D(H  26,C  25,C  23,O  21)     65.7121         0.000000   
    302. D(H  31,C  29,C  23,C  25)   -179.6598         0.000000   
    303. D(H  31,C  29,C  23,C  24)    -49.6497         0.000000   
    304. D(H  31,C  29,C  23,O  21)     62.7767         0.000000   
    305. D(H  30,C  29,C  23,C  25)     61.2943         0.000000   
    306. D(H  30,C  29,C  23,C  24)   -168.6956         0.000000   
    307. D(H  30,C  29,C  23,O  21)    -56.2693         0.000000   
    308. D(H  35,C  33,C  24,C  37)     68.3255         0.000000   
    309. D(H  35,C  33,C  24,C  23)    -61.3243         0.000000   
    310. D(H  35,C  33,C  24,O  22)   -175.3945         0.000000   
    311. D(H  34,C  33,C  24,C  37)    -50.8791         0.000000   
    312. D(H  34,C  33,C  24,C  23)    179.4712         0.000000   
    313. D(H  34,C  33,C  24,O  22)     65.4009         0.000000   
    314. D(H  39,C  37,C  24,C  33)     61.0347         0.000000   
    315. D(H  39,C  37,C  24,C  23)   -168.6237         0.000000   
    316. D(H  39,C  37,C  24,O  22)    -56.3984         0.000000   
    317. D(H  38,C  37,C  24,C  33)    -58.6424         0.000000   
    318. D(H  38,C  37,C  24,C  23)     71.6992         0.000000   
    319. D(H  38,C  37,C  24,O  22)   -176.0754         0.000000   
    320. D(C  43,N  41,C   3,C   4)     75.5497         0.000000   
    321. D(C  43,N  41,C   3,C   2)   -104.6260         0.000000   
    322. D(C  42,N  41,C   3,C   4)    -77.2338         0.000000   
    323. D(C  42,N  41,C   3,C   2)    102.5905         0.000000   
    324. D(C  57,C  42,N  41,C   3)    -39.9043         0.000000   
    325. D(C  56,C  42,N  41,C  43)    -71.8249         0.000000   
    326. D(C  56,C  42,N  41,C   3)     80.0139         0.000000   
    327. D(C  51,C  42,N  41,C  43)     51.4296         0.000000   
    328. D(C  51,C  42,N  41,C   3)   -156.7316         0.000000   
    329. D(C  47,C  43,N  41,C   3)    -79.9432         0.000000   
    330. D(C  46,C  43,N  41,C  42)   -168.0560         0.000000   
    331. D(C  46,C  43,N  41,C   3)     40.2265         0.000000   
    332. D(C  45,C  43,N  41,C  42)    -51.5342         0.000000   
    333. D(C  45,C  43,N  41,C   3)    156.7483         0.000000   
    334. D(C  12,S  44,C  16,H  18)   -179.7014         0.000000   
    335. D(C  12,S  44,C  16,C  14)     -0.2608         0.000000   
    336. D(C  16,S  44,C  12,C  13)      0.4945         0.000000   
    337. D(C  16,S  44,C  12,B  10)    166.0413         0.000000   
    338. D(H  49,C  45,C  43,C  47)    164.8115         0.000000   
    339. D(H  49,C  45,C  43,C  46)     49.4203         0.000000   
    340. D(H  49,C  45,C  43,N  41)    -68.5064         0.000000   
    341. D(C  48,C  45,C  43,C  47)    -74.8448         0.000000   
    342. D(C  48,C  45,C  43,C  46)    169.7639         0.000000   
    343. D(C  48,C  45,C  43,N  41)     51.8372         0.000000   
    344. D(H  64,C  46,C  43,N  41)     55.0615         0.000000   
    345. D(H  65,C  46,C  43,C  47)     59.3837         0.000000   
    346. D(H  65,C  46,C  43,C  45)    177.0054         0.000000   
    347. D(H  65,C  46,C  43,N  41)    -66.1614         0.000000   
    348. D(H  64,C  46,C  43,C  47)   -179.3934         0.000000   
    349. D(H  64,C  46,C  43,C  45)    -61.7716         0.000000   
    350. D(H  68,C  47,C  43,C  46)     53.0846         0.000000   
    351. D(H  68,C  47,C  43,C  45)    -62.8613         0.000000   
    352. D(H  68,C  47,C  43,N  41)    174.9012         0.000000   
    353. D(H  67,C  47,C  43,C  46)    172.8235         0.000000   
    354. D(H  67,C  47,C  43,C  45)     56.8776         0.000000   
    355. D(H  67,C  47,C  43,N  41)    -65.3598         0.000000   
    356. D(H  52,C  48,C  45,H  50)     59.7642         0.000000   
    357. D(H  52,C  48,C  45,H  49)    -57.8602         0.000000   
    358. D(H  52,C  48,C  45,C  43)   -177.5872         0.000000   
    359. D(C  51,C  48,C  45,H  50)   -179.2242         0.000000   
    360. D(C  51,C  48,C  45,H  49)     63.1513         0.000000   
    361. D(C  51,C  48,C  45,C  43)    -56.5757         0.000000   
    362. D(H  54,C  51,C  48,H  53)    174.6056         0.000000   
    363. D(H  54,C  51,C  48,C  45)    -63.3398         0.000000   
    364. D(C  42,C  51,C  48,H  53)    -65.6529         0.000000   
    365. D(C  42,C  51,C  48,H  52)    177.4300         0.000000   
    366. D(C  42,C  51,C  48,C  45)     56.4017         0.000000   
    367. D(H  54,C  51,C  42,C  57)    -49.4851         0.000000   
    368. D(H  54,C  51,C  42,C  56)   -164.7318         0.000000   
    369. D(H  54,C  51,C  42,N  41)     68.7082         0.000000   
    370. D(C  48,C  51,C  42,C  57)   -169.7464         0.000000   
    371. D(H  54,C  51,C  48,H  52)     57.6885         0.000000   
    372. D(C  48,C  51,C  42,C  56)     75.0069         0.000000   
    373. D(C  48,C  51,C  42,N  41)    -51.5531         0.000000   
    374. D(H  62,C  56,C  42,C  57)   -171.6073         0.000000   
    375. D(H  62,C  56,C  42,C  51)    -55.5888         0.000000   
    376. D(H  62,C  56,C  42,N  41)     66.6616         0.000000   
    377. D(H  61,C  56,C  42,C  57)    -51.9740         0.000000   
    378. D(H  61,C  56,C  42,C  51)     64.0446         0.000000   
    379. D(H  61,C  56,C  42,N  41)   -173.7051         0.000000   
    380. D(H  59,C  57,C  42,C  56)    -58.0823         0.000000   
    381. D(H  59,C  57,C  42,C  51)   -175.6564         0.000000   
    382. D(H  59,C  57,C  42,N  41)     67.2417         0.000000   
    383. D(H  58,C  57,C  42,C  56)     61.1774         0.000000   
    384. D(H  58,C  57,C  42,C  51)    -56.3966         0.000000   
    385. D(H  58,C  57,C  42,N  41)   -173.4985         0.000000   
    -----------------------------------------------------------------

Number of atoms                         .... 70
Number of degrees of freedom            .... 385


         *************************************************************
         *                GEOMETRY OPTIMIZATION CYCLE   1            *
         *************************************************************
---------------------------------
CARTESIAN COORDINATES (ANGSTROEM)
---------------------------------
  C     -2.105638   -1.947368    1.185382
  C     -0.762958   -1.592383    1.103288
  C     -0.350518   -0.306261    0.724044
  C     -1.350815    0.642785    0.415039
  C     -2.699527    0.273639    0.499378
  C     -3.081700   -1.007253    0.882763
  H     -2.384484   -2.955324    1.480526
  H     -0.012798   -2.344464    1.335828
  H     -3.461962    1.007320    0.259972
  H     -4.135726   -1.265036    0.940298
  B      1.204872    0.081910    0.663205
  H      1.689947   -0.986399   -0.055464
  C      1.981923    0.251770    2.069767
  C      1.654050   -0.235531    3.317365
  C      2.353593    0.386082    4.384497
  H      0.921041   -1.023595    3.450837
  C      3.209915    1.357662    3.938168
  H      2.222623    0.134803    5.430423
  H      3.854205    1.990992    4.533926
  H      1.579680    0.899347   -0.129388
  B      2.534507   -1.417053    0.780792
  O      3.842354   -1.265770    0.416818
  O      2.258512   -2.590956    1.436168
  C      4.581241   -2.257741    1.170106
  C      3.488403   -3.355163    1.445308
  C      5.750170   -2.724682    0.315267
  H      6.447549   -1.896750    0.165304
  H      6.288410   -3.538682    0.811443
  H      5.418040   -3.068899   -0.665393
  C      5.094941   -1.583669    2.441774
  H      5.688374   -0.710117    2.161322
  H      4.275634   -1.242246    3.080230
  H      5.728785   -2.260952    3.021299
  C      3.610545   -4.048417    2.794243
  H      2.809689   -4.784335    2.903604
  H      4.567863   -4.573145    2.874730
  H      3.528465   -3.334523    3.615553
  C      3.366880   -4.384000    0.322205
  H      4.228511   -5.057154    0.297327
  H      2.466041   -4.980290    0.486958
  H      3.275873   -3.895880   -0.652139
  N     -0.975408    1.968302    0.016090
  C     -1.057993    2.274304   -1.435256
  C     -1.143514    3.048382    1.020601
  S      3.164478    1.511744    2.236652
  C     -0.185526    4.194595    0.645962
  C     -0.721767    2.532801    2.403534
  C     -2.582197    3.595412    1.176321
  C     -0.323856    4.641747   -0.804312
  H      0.840566    3.840369    0.810990
  H     -0.352463    5.035102    1.330630
  C     -0.105554    3.448935   -1.727600
  H      0.408101    5.426524   -1.026480
  H     -1.311510    5.088457   -0.976769
  H      0.922765    3.087338   -1.598698
  H     -0.217103    3.743771   -2.778207
  C     -2.474222    2.602782   -1.963909
  C     -0.564407    1.065666   -2.246698
  H     -0.519154    1.340928   -3.305232
  H     -1.236354    0.208531   -2.150998
  H      0.434109    0.758201   -1.930854
  H     -2.443532    2.701331   -3.054462
  H     -2.879196    3.534931   -1.567531
  H     -3.176815    1.798567   -1.729811
  H      0.293958    2.135998    2.384163
  H     -1.388627    1.746746    2.768667
  H     -0.751743    3.360309    3.119457
  H     -2.950851    4.105535    0.285528
  H     -2.611519    4.317357    1.999522
  H     -3.282965    2.793705    1.424268

----------------------------
CARTESIAN COORDINATES (A.U.)
----------------------------
  NO LB      ZA    FRAG     MASS         X           Y           Z
   0 C     6.0000    0    12.011   -3.979079   -3.679992    2.240047
   1 C     6.0000    0    12.011   -1.441782   -3.009168    2.084912
   2 C     6.0000    0    12.011   -0.662383   -0.578749    1.368245
   3 C     6.0000    0    12.011   -2.552670    1.214688    0.784310
   4 C     6.0000    0    12.011   -5.101367    0.517103    0.943688
   5 C     6.0000    0    12.011   -5.823569   -1.903432    1.668180
   6 H     1.0000    0     1.008   -4.506022   -5.584753    2.797789
   7 H     1.0000    0     1.008   -0.024185   -4.430395    2.524349
   8 H     1.0000    0     1.008   -6.542160    1.903559    0.491276
   9 H     1.0000    0     1.008   -7.815390   -2.390572    1.776906
  10 B     5.0000    0    10.810    2.276878    0.154787    1.253276
  11 H     1.0000    0     1.008    3.193537   -1.864024   -0.104812
  12 C     6.0000    0    12.011    3.745292    0.475776    3.911293
  13 C     6.0000    0    12.011    3.125702   -0.445089    6.268911
  14 C     6.0000    0    12.011    4.447646    0.729589    8.285499
  15 H     1.0000    0     1.008    1.740515   -1.934314    6.521137
  16 C     6.0000    0    12.011    6.065860    2.565609    7.442059
  17 H     1.0000    0     1.008    4.200149    0.254741   10.262012
  18 H     1.0000    0     1.008    7.283392    3.762430    8.567878
  19 H     1.0000    0     1.008    2.985163    1.699520   -0.244508
  20 B     5.0000    0    10.810    4.789524   -2.677842    1.475483
  21 O     8.0000    0    15.999    7.260997   -2.391959    0.787672
  22 O     8.0000    0    15.999    4.267969   -4.896197    2.713964
  23 C     6.0000    0    12.011    8.657291   -4.266512    2.211180
  24 C     6.0000    0    12.011    6.592126   -6.340339    2.731236
  25 C     6.0000    0    12.011   10.866247   -5.148903    0.595768
  26 H     1.0000    0     1.008   12.184102   -3.584338    0.312379
  27 H     1.0000    0     1.008   11.883373   -6.687140    1.533405
  28 H     1.0000    0     1.008   10.238612   -5.799379   -1.257411
  29 C     6.0000    0    12.011    9.628043   -2.992701    4.614284
  30 H     1.0000    0     1.008   10.749469   -1.341927    4.084307
  31 H     1.0000    0     1.008    8.079777   -2.347505    5.820791
  32 H     1.0000    0     1.008   10.825835   -4.272580    5.709428
  33 C     6.0000    0    12.011    6.822941   -7.650399    5.280354
  34 H     1.0000    0     1.008    5.309543   -9.041083    5.487016
  35 H     1.0000    0     1.008    8.632010   -8.641992    5.432452
  36 H     1.0000    0     1.008    6.667833   -6.301335    6.832405
  37 C     6.0000    0    12.011    6.362481   -8.284559    0.608879
  38 H     1.0000    0     1.008    7.990728   -9.556636    0.561867
  39 H     1.0000    0     1.008    4.660142   -9.411384    0.920217
  40 H     1.0000    0     1.008    6.190503   -7.362146   -1.232364
  41 N     7.0000    0    14.007   -1.843254    3.719552    0.030406
  42 C     6.0000    0    12.011   -1.999317    4.297812   -2.712241
  43 C     6.0000    0    12.011   -2.160928    5.760607    1.928656
  44 S    16.0000    0    32.060    5.979997    2.856782    4.226660
  45 C     6.0000    0    12.011   -0.350593    7.926636    1.220691
  46 C     6.0000    0    12.011   -1.363942    4.786300    4.542021
  47 C     6.0000    0    12.011   -4.879645    6.794344    2.222925
  48 C     6.0000    0    12.011   -0.611999    8.771631   -1.519929
  49 H     1.0000    0     1.008    1.588440    7.257246    1.532549
  50 H     1.0000    0     1.008   -0.666059    9.514964    2.514526
  51 C     6.0000    0    12.011   -0.199468    6.517543   -3.264691
  52 H     1.0000    0     1.008    0.771199   10.254644   -1.939766
  53 H     1.0000    0     1.008   -2.478395    9.615790   -1.845826
  54 H     1.0000    0     1.008    1.743773    5.834223   -3.021101
  55 H     1.0000    0     1.008   -0.410265    7.074702   -5.250050
  56 C     6.0000    0    12.011   -4.675602    4.918545   -3.711250
  57 C     6.0000    0    12.011   -1.066575    2.013817   -4.245644
  58 H     1.0000    0     1.008   -0.981059    2.533987   -6.245983
  59 H     1.0000    0     1.008   -2.336370    0.394066   -4.064797
  60 H     1.0000    0     1.008    0.820347    1.432792   -3.648785
  61 H     1.0000    0     1.008   -4.617606    5.104776   -5.772097
  62 H     1.0000    0     1.008   -5.440892    6.680051   -2.962204
  63 H     1.0000    0     1.008   -6.003310    3.398799   -3.268869
  64 H     1.0000    0     1.008    0.555500    4.036451    4.505415
  65 H     1.0000    0     1.008   -2.624125    3.300872    5.232022
  66 H     1.0000    0     1.008   -1.420588    6.350064    5.894919
  67 H     1.0000    0     1.008   -5.576300    7.758337    0.539570
  68 H     1.0000    0     1.008   -4.935056    8.158622    3.778549
  69 H     1.0000    0     1.008   -6.203905    5.279337    2.691476

--------------------------------
INTERNAL COORDINATES (ANGSTROEM)
--------------------------------
 C      0   0   0     0.000000000000     0.00000000     0.00000000
 C      1   0   0     1.391238066422     0.00000000     0.00000000
 C      2   1   0     1.402869403765   122.24977973     0.00000000
 C      3   2   1     1.413069880915   117.82195970   359.77256111
 C      4   3   2     1.400858984759   119.43207085     0.13405966
 C      1   2   3     1.388557344956   119.52380051     0.08747777
 H      1   2   3     1.086664792099   120.02341739   179.83138487
 H      2   1   3     1.087400895604   118.46964134   180.42736497
 H      5   4   3     1.084854908189   119.02153146   180.04316281
 H      6   1   2     1.086615460957   120.64333283   179.96511760
 B      3   2   1     1.604249407437   121.13948674   178.90812169
 H     11   3   2     1.375887715865   100.00604751    48.65282971
 C     11   3   2     1.615882834875   117.30076136   287.97789424
 C     13  11   3     1.378935726687   129.49894583    20.54140840
 C     14  13  11     1.419342747909   114.09681389   195.79079242
 H     14  13  11     1.084509952449   121.92772275    15.63664224
 C     15  14  13     1.369841100393   111.94759864     0.43680570
 H     15  14  13     1.083630690880   124.37200896   179.79103417
 H     17  15  14     1.082194108080   127.43658615   179.35222017
 H     11   3   2     1.198702610943   119.55338890   149.38885004
 B     12  11   3     1.264147364373    98.88878386   238.15377445
 O     21  12  11     1.365952925314   115.19296218   248.68484628
 O     21  12  11     1.372493786802   118.22330780   108.11840917
 C     22  21  12     1.448241442079   105.90455668   202.90407870
 C     23  21  12     1.448008201058   106.47607346   136.93552229
 C     24  22  21     1.521571102658   108.05490106   146.94138914
 H     26  24  22     1.092839314645   109.56289845    65.71212895
 H     26  24  22     1.094755187508   110.56414936   184.83551457
 H     26  24  22     1.091095649148   111.58686733   306.08746930
 C     24  22  21     1.528201640298   107.59000783   265.86193467
 H     30  24  22     1.092661496758   108.76086180   303.73074579
 H     30  24  22     1.093370792144   111.82417586    62.77668379
 H     30  24  22     1.093764007476   111.25806549   184.35117638
 C     25  23  21     1.521560189708   108.31484800   141.02787361
 H     34  25  23     1.093117314738   109.67106848    65.40090421
 H     34  25  23     1.094657656200   110.71937974   184.60547095
 H     34  25  23     1.091298257002   111.29216996   305.88533062
 C     25  23  21     1.527950837137   106.44975515   259.94254066
 H     38  25  23     1.093692462606   111.62295004   183.92456267
 H     38  25  23     1.092802003581   108.79350700   303.60164152
 H     38  25  23     1.093567391058   111.15982353    62.42006620
 N      4   3   2     1.434254523276   119.75170730   180.30732047
 C     42   4   3     1.485551317843   116.58794402   102.59049658
 C     42   4   3     1.484545311790   117.03515394   255.37396105
 S     17  15  14     1.709082350839   111.82094364   359.95771064
 C     44  42   4     1.540097279341   107.84486862   156.74831623
 C     44  42   4     1.534991199343   109.51967097    40.22651061
 C     44  42   4     1.547029189702   115.51058771   280.05677568
 C     46  44  42     1.523933979895   113.16701394    51.83723903
 H     46  44  42     1.097986836134   107.73619442   291.49361511
 H     46  44  42     1.096854707444   108.89252099   175.54848065
 C     49  46  44     1.524111859901   109.50365006   303.42434586
 H     49  46  44     1.095898996168   110.02436240   182.41275044
 H     49  46  44     1.097611800531   110.52529709    65.53745004
 H     52  49  46     1.097637500168   108.71544124   296.66018681
 H     52  49  46     1.096880355712   110.81176761   179.04985722
 C     43  42   4     1.546957132998   115.37250141    80.01391835
 C     43  42   4     1.537163320472   109.62821479   320.09571345
 H     58  43  42     1.094674029933   109.02707971   186.50150519
 H     58  43  42     1.093321393294   111.89261403    67.24173815
 H     58  43  42     1.091478978642   111.25316934   305.78900793
 H     57  43  42     1.095426687328   109.49172974   186.29489574
 H     57  43  42     1.090880936565   113.39906000    66.66157745
 H     57  43  42     1.093252287205   111.03745441   304.59584282
 H     47  44  42     1.090653534389   111.22800414    55.06154327
 H     47  44  42     1.093575251327   112.00581777   293.83857569
 H     47  44  42     1.094629522975   109.13526223   174.35229662
 H     48  44  42     1.090707759069   113.42162287   294.64016488
 H     48  44  42     1.095319245293   109.48804945   174.90121655
 H     48  44  42     1.093292101171   111.07651676    56.69989083

---------------------------
INTERNAL COORDINATES (A.U.)
---------------------------
 C      0   0   0     0.000000000000     0.00000000     0.00000000
 C      1   0   0     2.629058932623     0.00000000     0.00000000
 C      2   1   0     2.651038974773   122.24977973     0.00000000
 C      3   2   1     2.670315083023   117.82195970   359.77256111
 C      4   3   2     2.647239833438   119.43207085     0.13405966
 C      1   2   3     2.623993103211   119.52380051     0.08747777
 H      1   2   3     2.053498856442   120.02341739   179.83138487
 H      2   1   3     2.054889890473   118.46964134   180.42736497
 H      5   4   3     2.050078671518   119.02153146   180.04316281
 H      6   1   2     2.053405634093   120.64333283   179.96511760
 B      3   2   1     3.031592030561   121.13948674   178.90812169
 H     11   3   2     2.600050974010   100.00604751    48.65282971
 C     11   3   2     3.053576022419   117.30076136   287.97789424
 C     13  11   3     2.605810879718   129.49894583    20.54140840
 C     14  13  11     2.682169083715   114.09681389   195.79079242
 H     14  13  11     2.049426799641   121.92772275    15.63664224
 C     15  14  13     2.588624526731   111.94759864     0.43680570
 H     15  14  13     2.047765236075   124.37200896   179.79103417
 H     17  15  14     2.045050488015   127.43658615   179.35222017
 H     11   3   2     2.265219650699   119.55338890   149.38885004
 B     12  11   3     2.388892311584    98.88878386   238.15377445
 O     21  12  11     2.581276940672   115.19296218   248.68484628
 O     21  12  11     2.593637377564   118.22330780   108.11840917
 C     22  21  12     2.736779701324   105.90455668   202.90407870
 C     23  21  12     2.736338939671   106.47607346   136.93552229
 C     24  22  21     2.875352677312   108.05490106   146.94138914
 H     26  24  22     2.065167013061   109.56289845    65.71212895
 H     26  24  22     2.068787488080   110.56414936   184.83551457
 H     26  24  22     2.061871962802   111.58686733   306.08746930
 C     24  22  21     2.887882577572   107.59000783   265.86193467
 H     30  24  22     2.064830985953   108.76086180   303.73074579
 H     30  24  22     2.066171359981   111.82417586    62.77668379
 H     30  24  22     2.066914429270   111.25806549   184.35117638
 C     25  23  21     2.875332054826   108.31484800   141.02787361
 H     34  25  23     2.065692357103   109.67106848    65.40090421
 H     34  25  23     2.068603180618   110.71937974   184.60547095
 H     34  25  23     2.062254836160   111.29216996   305.88533062
 C     25  23  21     2.887408628284   106.44975515   259.94254066
 H     38  25  23     2.066779229059   111.62295004   183.92456267
 H     38  25  23     2.065096505368   108.79350700   303.60164152
 H     38  25  23     2.066542878086   111.15982353    62.42006620
 N      4   3   2     2.710348255330   119.75170730   180.30732047
 C     42   4   3     2.807285148609   116.58794402   102.59049658
 C     42   4   3     2.805384072679   117.03515394   255.37396105
 S     17  15  14     3.229697583404   111.82094364   359.95771064
 C     44  42   4     2.910362077552   107.84486862   156.74831623
 C     44  42   4     2.900712984737   109.51967097    40.22651061
 C     44  42   4     2.923461489718   115.51058771   280.05677568
 C     46  44  42     2.879817868179   113.16701394    51.83723903
 H     46  44  42     2.074894418944   107.73619442   291.49361511
 H     46  44  42     2.072755005771   108.89252099   175.54848065
 C     49  46  44     2.880154012675   109.50365006   303.42434586
 H     49  46  44     2.070948973197   110.02436240   182.41275044
 H     49  46  44     2.074185704364   110.52529709    65.53745004
 H     52  49  46     2.074234269639   108.71544124   296.66018681
 H     52  49  46     2.072803473973   110.81176761   179.04985722
 C     43  42   4     2.923325322283   115.37250141    80.01391835
 C     43  42   4     2.904817698801   109.62821479   320.09571345
 H     58  43  42     2.068634122489   109.02707971   186.50150519
 H     58  43  42     2.066078009683   111.89261403    67.24173815
 H     58  43  42     2.062596350565   111.25316934   305.78900793
 H     57  43  42     2.070056438838   109.49172974   186.29489574
 H     57  43  42     2.061466214823   113.39906000    66.66157745
 H     57  43  42     2.065947418100   111.03745441   304.59584282
 H     47  44  42     2.061036486988   111.22800414    55.06154327
 H     47  44  42     2.066557731841   112.00581777   293.83857569
 H     47  44  42     2.068550016528   109.13526223   174.35229662
 H     48  44  42     2.061138956784   113.42162287   294.64016488
 H     48  44  42     2.069853402818   109.48804945   174.90121655
 H     48  44  42     2.066022655592   111.07651676    56.69989083

---------------------
BASIS SET INFORMATION
---------------------
There are 6 groups of distinct atoms

 Group   1 Type C   : 10s4p1d contracted to 3s2p1d pattern {631/31/1}
 Group   2 Type H   : 4s1p contracted to 2s1p pattern {31/1}
 Group   3 Type B   : 10s4p1d contracted to 3s2p1d pattern {631/31/1}
 Group   4 Type O   : 10s4p1d contracted to 3s2p1d pattern {631/31/1}
 Group   5 Type N   : 10s4p1d contracted to 3s2p1d pattern {631/31/1}
 Group   6 Type S   : 16s10p1d contracted to 4s3p1d pattern {6631/631/1}

Atom   0C    basis set group =>   1
Atom   1C    basis set group =>   1
Atom   2C    basis set group =>   1
Atom   3C    basis set group =>   1
Atom   4C    basis set group =>   1
Atom   5C    basis set group =>   1
Atom   6H    basis set group =>   2
Atom   7H    basis set group =>   2
Atom   8H    basis set group =>   2
Atom   9H    basis set group =>   2
Atom  10B    basis set group =>   3
Atom  11H    basis set group =>   2
Atom  12C    basis set group =>   1
Atom  13C    basis set group =>   1
Atom  14C    basis set group =>   1
Atom  15H    basis set group =>   2
Atom  16C    basis set group =>   1
Atom  17H    basis set group =>   2
Atom  18H    basis set group =>   2
Atom  19H    basis set group =>   2
Atom  20B    basis set group =>   3
Atom  21O    basis set group =>   4
Atom  22O    basis set group =>   4
Atom  23C    basis set group =>   1
Atom  24C    basis set group =>   1
Atom  25C    basis set group =>   1
Atom  26H    basis set group =>   2
Atom  27H    basis set group =>   2
Atom  28H    basis set group =>   2
Atom  29C    basis set group =>   1
Atom  30H    basis set group =>   2
Atom  31H    basis set group =>   2
Atom  32H    basis set group =>   2
Atom  33C    basis set group =>   1
Atom  34H    basis set group =>   2
Atom  35H    basis set group =>   2
Atom  36H    basis set group =>   2
Atom  37C    basis set group =>   1
Atom  38H    basis set group =>   2
Atom  39H    basis set group =>   2
Atom  40H    basis set group =>   2
Atom  41N    basis set group =>   5
Atom  42C    basis set group =>   1
Atom  43C    basis set group =>   1
Atom  44S    basis set group =>   6
Atom  45C    basis set group =>   1
Atom  46C    basis set group =>   1
Atom  47C    basis set group =>   1
Atom  48C    basis set group =>   1
Atom  49H    basis set group =>   2
Atom  50H    basis set group =>   2
Atom  51C    basis set group =>   1
Atom  52H    basis set group =>   2
Atom  53H    basis set group =>   2
Atom  54H    basis set group =>   2
Atom  55H    basis set group =>   2
Atom  56C    basis set group =>   1
Atom  57C    basis set group =>   1
Atom  58H    basis set group =>   2
Atom  59H    basis set group =>   2
Atom  60H    basis set group =>   2
Atom  61H    basis set group =>   2
Atom  62H    basis set group =>   2
Atom  63H    basis set group =>   2
Atom  64H    basis set group =>   2
Atom  65H    basis set group =>   2
Atom  66H    basis set group =>   2
Atom  67H    basis set group =>   2
Atom  68H    basis set group =>   2
Atom  69H    basis set group =>   2
---------------------------------
AUXILIARY/J BASIS SET INFORMATION
---------------------------------
There are 6 groups of distinct atoms

 Group   1 Type C   : 12s5p4d2f1g contracted to 6s4p3d1f1g pattern {711111/2111/211/2/1}
 Group   2 Type H   : 5s2p1d contracted to 3s1p1d pattern {311/2/1}
 Group   3 Type B   : 12s5p4d2f1g contracted to 6s4p3d1f1g pattern {711111/2111/211/2/1}
 Group   4 Type O   : 12s5p4d2f1g contracted to 6s4p3d1f1g pattern {711111/2111/211/2/1}
 Group   5 Type N   : 12s5p4d2f1g contracted to 6s4p3d1f1g pattern {711111/2111/211/2/1}
 Group   6 Type S   : 14s5p5d2f1g contracted to 8s4p3d1f1g pattern {71111111/2111/311/2/1}

Atom   0C    basis set group =>   1
Atom   1C    basis set group =>   1
Atom   2C    basis set group =>   1
Atom   3C    basis set group =>   1
Atom   4C    basis set group =>   1
Atom   5C    basis set group =>   1
Atom   6H    basis set group =>   2
Atom   7H    basis set group =>   2
Atom   8H    basis set group =>   2
Atom   9H    basis set group =>   2
Atom  10B    basis set group =>   3
Atom  11H    basis set group =>   2
Atom  12C    basis set group =>   1
Atom  13C    basis set group =>   1
Atom  14C    basis set group =>   1
Atom  15H    basis set group =>   2
Atom  16C    basis set group =>   1
Atom  17H    basis set group =>   2
Atom  18H    basis set group =>   2
Atom  19H    basis set group =>   2
Atom  20B    basis set group =>   3
Atom  21O    basis set group =>   4
Atom  22O    basis set group =>   4
Atom  23C    basis set group =>   1
Atom  24C    basis set group =>   1
Atom  25C    basis set group =>   1
Atom  26H    basis set group =>   2
Atom  27H    basis set group =>   2
Atom  28H    basis set group =>   2
Atom  29C    basis set group =>   1
Atom  30H    basis set group =>   2
Atom  31H    basis set group =>   2
Atom  32H    basis set group =>   2
Atom  33C    basis set group =>   1
Atom  34H    basis set group =>   2
Atom  35H    basis set group =>   2
Atom  36H    basis set group =>   2
Atom  37C    basis set group =>   1
Atom  38H    basis set group =>   2
Atom  39H    basis set group =>   2
Atom  40H    basis set group =>   2
Atom  41N    basis set group =>   5
Atom  42C    basis set group =>   1
Atom  43C    basis set group =>   1
Atom  44S    basis set group =>   6
Atom  45C    basis set group =>   1
Atom  46C    basis set group =>   1
Atom  47C    basis set group =>   1
Atom  48C    basis set group =>   1
Atom  49H    basis set group =>   2
Atom  50H    basis set group =>   2
Atom  51C    basis set group =>   1
Atom  52H    basis set group =>   2
Atom  53H    basis set group =>   2
Atom  54H    basis set group =>   2
Atom  55H    basis set group =>   2
Atom  56C    basis set group =>   1
Atom  57C    basis set group =>   1
Atom  58H    basis set group =>   2
Atom  59H    basis set group =>   2
Atom  60H    basis set group =>   2
Atom  61H    basis set group =>   2
Atom  62H    basis set group =>   2
Atom  63H    basis set group =>   2
Atom  64H    basis set group =>   2
Atom  65H    basis set group =>   2
Atom  66H    basis set group =>   2
Atom  67H    basis set group =>   2
Atom  68H    basis set group =>   2
Atom  69H    basis set group =>   2


           ************************************************************
           *        Program running with 20 parallel MPI-processes    *
           *              working on a common directory               *
           ************************************************************
------------------------------------------------------------------------------
                             ORCA STARTUP CALCULATIONS
                           -- RI-GTO INTEGRALS CHOSEN --
------------------------------------------------------------------------------
------------------------------------------------------------------------------
                   ___                                                        
                  /   \      - P O W E R E D   B Y -                         
                 /     \                                                     
                 |  |  |   _    _      __       _____    __    __             
                 |  |  |  | |  | |    /  \     |  _  \  |  |  /  |          
                  \  \/   | |  | |   /    \    | | | |  |  | /  /          
                 / \  \   | |__| |  /  /\  \   | |_| |  |  |/  /          
                |  |  |   |  __  | /  /__\  \  |    /   |      \           
                |  |  |   | |  | | |   __   |  |    \   |  |\   \          
                \     /   | |  | | |  |  |  |  | |\  \  |  | \   \       
                 \___/    |_|  |_| |__|  |__|  |_| \__\ |__|  \__/        
                                                                              
                      - O R C A' S   B I G   F R I E N D -                    
                                      &                                       
                       - I N T E G R A L  F E E D E R -                       
                                                                              
 v1 FN, 2020, v2 2021, v3 2022-2024                                           
------------------------------------------------------------------------------


----------------------
SHARK INTEGRAL PACKAGE
----------------------

Number of atoms                             ...     70
Number of basis functions                   ...    633
Number of shells                            ...    305
Maximum angular momentum                    ...      2
Integral batch strategy                     ... SHARK/LIBINT Hybrid
RI-J (if used) integral strategy            ... SPLIT-RIJ (Revised 2003 algorithm where possible)
Printlevel                                  ...      1
Contraction scheme used                     ... SEGMENTED contraction
Prescreening option                         ... SCHWARTZ
   Thresh                                   ... 2.500e-11
   Tcut                                     ... 2.500e-12
   Tpresel                                  ... 2.500e-12 
Coulomb Range Separation                    ... NOT USED
Exchange Range Separation                   ... Long Range
   Mu parameter                             ... 2.500e-01
   Scaling (regular/separated)              ... 1.957e-01 8.043e-01
Robust (split-)RI terms used:
  metric    (central integrals)             ... YES
  density   (r.h.s.  integrals)             ... YES
  potential (l.h.s.  integrals)             ... YES
Multipole approximations                    ... NOT USED
Finite Nucleus Model                        ... NOT USED
CABS basis                                  ... NOT available
Auxiliary Coulomb fitting basis             ... AVAILABLE
   # of basis functions in Aux-J            ...   1950
   # of shells in Aux-J                     ...    662
   Maximum angular momentum in Aux-J        ...      4
Auxiliary J/K fitting basis                 ... NOT available
Auxiliary Correlation fitting basis         ... NOT available
Auxiliary 'external' fitting basis          ... NOT available

Checking pre-screening integrals            ... done (  0.0 sec) Dimension = 305
   => SHARK Basis and OBASIS are compatible. Storing Pre-screening
Shell pair information
Shell pair cut-off parameter TPreSel        ...   2.5e-12
Total number of shell pairs                 ...     46665
Shell pairs after pre-screening             ...     28823
Total number of primitive shell pairs       ...    226926
Primitive shell pairs kept                  ...     77651
          la=0 lb=0:   9317 shell pairs
          la=1 lb=0:  10965 shell pairs
          la=1 lb=1:   3306 shell pairs
          la=2 lb=0:   3119 shell pairs
          la=2 lb=1:   1845 shell pairs
          la=2 lb=2:    271 shell pairs

Checking whether 4 symmetric matrices of dimension 633 fit in memory
:Max Core in MB      =   4096.00
 MB in use           =     40.25
 MB left             =   4055.75
 MB needed           =      6.12
 Data fit in memory  = YES
Calculating RI/J V-Matrix + Cholesky decomp.... done (  0.2 sec)
Calculating Nuclear repulsion               ... done (  0.0 sec) ENN=   3572.025367181599 Eh

Diagonalization of the overlap matrix:
Smallest eigenvalue                        ... 4.032e-04
Time for diagonalization                   ...    0.060 sec
Threshold for overlap eigenvalues          ... 1.000e-07
Number of eigenvalues below threshold      ... 0
Time for construction of square roots      ...    0.032 sec
Total time needed                          ...    0.096 sec

-------------------
DFT GRID GENERATION
-------------------

General Integration Accuracy     IntAcc      ... 4.388
Radial Grid Type                 RadialGrid  ... OptM3 with GC (2021)
Angular Grid (max. ang.)         AngularGrid ... 4 (Lebedev-302)
Angular grid pruning method      GridPruning ... 4 (adaptive)
Weight generation scheme         WeightScheme... mBecke (2022)
Basis function cutoff            BFCut       ... 1.0000e-11
Integration weight cutoff        WCut        ... 1.0000e-14
Partially contracted basis set               ... off
Rotationally invariant grid construction     ... off
Angular grids for H and He will be reduced by one unit

Total number of grid points                  ...   305850
Total number of batches                      ...     4812
Average number of points per batch           ...       63
Average number of grid points per atom       ...     4369

--------------------
COSX GRID GENERATION
--------------------

GRIDX 1
-------
General Integration Accuracy     IntAcc      ... 3.816
Radial Grid Type                 RadialGrid  ... OptM3 with GC (2021)
Angular Grid (max. ang.)         AngularGrid ... 1 (Lebedev-50)
Angular grid pruning method      GridPruning ... 4 (adaptive)
Weight generation scheme         WeightScheme... mBecke (2022)
Basis function cutoff            BFCut       ... 1.0000e-11
Integration weight cutoff        WCut        ... 1.0000e-14
Partially contracted basis set               ... on
Rotationally invariant grid construction     ... off
Angular grids for H and He will be reduced by one unit

Total number of grid points                  ...    39790
Total number of batches                      ...      346
Average number of points per batch           ...      115
Average number of grid points per atom       ...      568
UseSFitting                                  ... on

GRIDX 2
-------
General Integration Accuracy     IntAcc      ... 4.020
Radial Grid Type                 RadialGrid  ... OptM3 with GC (2021)
Angular Grid (max. ang.)         AngularGrid ... 2 (Lebedev-110)
Angular grid pruning method      GridPruning ... 4 (adaptive)
Weight generation scheme         WeightScheme... mBecke (2022)
Basis function cutoff            BFCut       ... 1.0000e-11
Integration weight cutoff        WCut        ... 1.0000e-14
Partially contracted basis set               ... on
Rotationally invariant grid construction     ... off
Angular grids for H and He will be reduced by one unit

Total number of grid points                  ...    80652
Total number of batches                      ...      670
Average number of points per batch           ...      120
Average number of grid points per atom       ...     1152
[...]
Quasi RRHO          ...     True
Cut-Off Frequency   ...     1.00 cm^-1

Throughout the following assumptions are being made:
  (1) The electronic state is orbitally nondegenerate
  (2) There are no thermally accessible electronically excited states
  (3) Hindered rotations indicated by low frequency modes are not
      treated as such but are treated as vibrations and this may
      cause some error
  (4) All equations used are the standard statistical mechanics
      equations for an ideal gas
  (5) All vibrations are strictly harmonic

freq.      16.85  E(vib)   ...       0.57 
freq.      28.14  E(vib)   ...       0.55 
freq.      42.06  E(vib)   ...       0.53 
freq.      47.73  E(vib)   ...       0.53 
freq.      65.69  E(vib)   ...       0.50 
freq.      79.62  E(vib)   ...       0.49 
freq.      80.78  E(vib)   ...       0.48 
freq.      91.43  E(vib)   ...       0.47 
freq.      96.04  E(vib)   ...       0.47 
freq.      99.06  E(vib)   ...       0.46 
freq.     123.18  E(vib)   ...       0.43 
freq.     134.56  E(vib)   ...       0.42 
freq.     148.05  E(vib)   ...       0.41 
freq.     162.06  E(vib)   ...       0.39 
freq.     169.64  E(vib)   ...       0.38 
freq.     198.80  E(vib)   ...       0.35 
freq.     206.44  E(vib)   ...       0.35 
freq.     211.57  E(vib)   ...       0.34 
freq.     233.82  E(vib)   ...       0.32 
freq.     249.17  E(vib)   ...       0.31 
freq.     251.18  E(vib)   ...       0.30 
freq.     261.56  E(vib)   ...       0.30 
freq.     285.37  E(vib)   ...       0.28 
freq.     288.12  E(vib)   ...       0.27 
freq.     289.68  E(vib)   ...       0.27 
freq.     296.73  E(vib)   ...       0.27 
freq.     303.66  E(vib)   ...       0.26 
freq.     308.64  E(vib)   ...       0.26 
freq.     318.13  E(vib)   ...       0.25 
freq.     328.31  E(vib)   ...       0.24 
freq.     337.55  E(vib)   ...       0.24 
freq.     339.34  E(vib)   ...       0.23 
freq.     344.67  E(vib)   ...       0.23 
freq.     349.58  E(vib)   ...       0.23 
freq.     367.76  E(vib)   ...       0.21 
freq.     370.91  E(vib)   ...       0.21 
freq.     381.83  E(vib)   ...       0.21 
freq.     395.15  E(vib)   ...       0.20 
freq.     403.71  E(vib)   ...       0.19 
freq.     409.26  E(vib)   ...       0.19 
freq.     436.15  E(vib)   ...       0.17 
freq.     459.55  E(vib)   ...       0.16 
freq.     464.07  E(vib)   ...       0.16 
freq.     478.13  E(vib)   ...       0.15 
freq.     485.54  E(vib)   ...       0.15 
freq.     497.33  E(vib)   ...       0.14 
freq.     524.81  E(vib)   ...       0.13 
freq.     528.04  E(vib)   ...       0.13 
freq.     547.07  E(vib)   ...       0.12 
freq.     558.15  E(vib)   ...       0.12 
freq.     572.32  E(vib)   ...       0.11 
freq.     585.77  E(vib)   ...       0.11 
freq.     587.41  E(vib)   ...       0.10 
freq.     588.83  E(vib)   ...       0.10 
freq.     604.51  E(vib)   ...       0.10 
freq.     613.93  E(vib)   ...       0.10 
freq.     617.50  E(vib)   ...       0.09 
freq.     678.46  E(vib)   ...       0.08 
freq.     682.64  E(vib)   ...       0.08 
freq.     720.54  E(vib)   ...       0.07 
freq.     750.08  E(vib)   ...       0.06 
freq.     756.15  E(vib)   ...       0.06 
freq.     768.18  E(vib)   ...       0.06 
freq.     775.09  E(vib)   ...       0.05 
freq.     780.17  E(vib)   ...       0.05 
freq.     784.35  E(vib)   ...       0.05 
freq.     798.56  E(vib)   ...       0.05 
freq.     818.78  E(vib)   ...       0.05 
freq.     832.66  E(vib)   ...       0.04 
freq.     877.69  E(vib)   ...       0.04 
freq.     885.03  E(vib)   ...       0.04 
freq.     887.43  E(vib)   ...       0.04 
freq.     894.05  E(vib)   ...       0.03 
freq.     895.53  E(vib)   ...       0.03 
freq.     900.83  E(vib)   ...       0.03 
freq.     921.04  E(vib)   ...       0.03 
freq.     933.85  E(vib)   ...       0.03 
freq.     935.03  E(vib)   ...       0.03 
freq.     937.40  E(vib)   ...       0.03 
freq.     949.65  E(vib)   ...       0.03 
freq.     951.47  E(vib)   ...       0.03 
freq.     953.08  E(vib)   ...       0.03 
freq.     964.25  E(vib)   ...       0.03 
freq.     974.00  E(vib)   ...       0.03 
freq.     985.95  E(vib)   ...       0.02 
freq.     994.14  E(vib)   ...       0.02 
freq.     996.15  E(vib)   ...       0.02 
freq.     997.42  E(vib)   ...       0.02 
freq.    1016.52  E(vib)   ...       0.02 
freq.    1017.37  E(vib)   ...       0.02 
freq.    1020.47  E(vib)   ...       0.02 
freq.    1021.87  E(vib)   ...       0.02 
freq.    1023.01  E(vib)   ...       0.02 
freq.    1030.25  E(vib)   ...       0.02 
freq.    1051.81  E(vib)   ...       0.02 
freq.    1075.06  E(vib)   ...       0.02 
freq.    1083.24  E(vib)   ...       0.02 
freq.    1086.32  E(vib)   ...       0.02 
freq.    1091.19  E(vib)   ...       0.02 
freq.    1100.93  E(vib)   ...       0.02 
freq.    1112.48  E(vib)   ...       0.01 
freq.    1116.83  E(vib)   ...       0.01 
freq.    1127.55  E(vib)   ...       0.01 
freq.    1158.79  E(vib)   ...       0.01 
freq.    1160.91  E(vib)   ...       0.01 
freq.    1179.64  E(vib)   ...       0.01 
freq.    1193.32  E(vib)   ...       0.01 
freq.    1194.74  E(vib)   ...       0.01 
freq.    1210.16  E(vib)   ...       0.01 
freq.    1212.55  E(vib)   ...       0.01 
freq.    1224.53  E(vib)   ...       0.01 
freq.    1233.07  E(vib)   ...       0.01 
freq.    1242.97  E(vib)   ...       0.01 
freq.    1250.22  E(vib)   ...       0.01 
freq.    1265.58  E(vib)   ...       0.01 
freq.    1268.69  E(vib)   ...       0.01 
freq.    1271.04  E(vib)   ...       0.01 
freq.    1273.92  E(vib)   ...       0.01 
freq.    1294.36  E(vib)   ...       0.01 
freq.    1306.78  E(vib)   ...       0.01 
freq.    1307.61  E(vib)   ...       0.01 
freq.    1318.74  E(vib)   ...       0.01 
freq.    1326.18  E(vib)   ...       0.01 
freq.    1336.18  E(vib)   ...       0.01 
freq.    1346.07  E(vib)   ...       0.01 
freq.    1385.81  E(vib)   ...       0.00 
freq.    1389.40  E(vib)   ...       0.00 
freq.    1401.14  E(vib)   ...       0.00 
freq.    1405.38  E(vib)   ...       0.00 
freq.    1407.07  E(vib)   ...       0.00 
freq.    1413.43  E(vib)   ...       0.00 
freq.    1421.89  E(vib)   ...       0.00 
freq.    1424.44  E(vib)   ...       0.00 
freq.    1426.20  E(vib)   ...       0.00 
freq.    1430.93  E(vib)   ...       0.00 
freq.    1433.92  E(vib)   ...       0.00 
freq.    1437.50  E(vib)   ...       0.00 
freq.    1443.91  E(vib)   ...       0.00 
freq.    1483.40  E(vib)   ...       0.00 
freq.    1483.98  E(vib)   ...       0.00 
freq.    1486.19  E(vib)   ...       0.00 
freq.    1491.39  E(vib)   ...       0.00 
freq.    1492.23  E(vib)   ...       0.00 
freq.    1493.59  E(vib)   ...       0.00 
freq.    1496.15  E(vib)   ...       0.00 
freq.    1497.21  E(vib)   ...       0.00 
freq.    1502.02  E(vib)   ...       0.00 
freq.    1502.33  E(vib)   ...       0.00 
freq.    1503.09  E(vib)   ...       0.00 
freq.    1509.29  E(vib)   ...       0.00 
freq.    1515.24  E(vib)   ...       0.00 
freq.    1516.87  E(vib)   ...       0.00 
freq.    1517.14  E(vib)   ...       0.00 
freq.    1521.40  E(vib)   ...       0.00 
freq.    1522.35  E(vib)   ...       0.00 
freq.    1523.73  E(vib)   ...       0.00 
freq.    1530.26  E(vib)   ...       0.00 
freq.    1536.48  E(vib)   ...       0.00 
freq.    1540.03  E(vib)   ...       0.00 
freq.    1545.82  E(vib)   ...       0.00 
freq.    1593.03  E(vib)   ...       0.00 
freq.    1656.76  E(vib)   ...       0.00 
freq.    1685.67  E(vib)   ...       0.00 
freq.    1732.96  E(vib)   ...       0.00 
freq.    2205.00  E(vib)   ...       0.00 
freq.    2633.48  E(vib)   ...       0.00 
freq.    3060.21  E(vib)   ...       0.00 
freq.    3061.59  E(vib)   ...       0.00 
freq.    3070.42  E(vib)   ...       0.00 
freq.    3079.46  E(vib)   ...       0.00 
freq.    3080.52  E(vib)   ...       0.00 
freq.    3081.68  E(vib)   ...       0.00 
freq.    3083.89  E(vib)   ...       0.00 
freq.    3084.64  E(vib)   ...       0.00 
freq.    3085.36  E(vib)   ...       0.00 
freq.    3087.95  E(vib)   ...       0.00 
freq.    3088.50  E(vib)   ...       0.00 
freq.    3110.04  E(vib)   ...       0.00 
freq.    3113.20  E(vib)   ...       0.00 
freq.    3122.04  E(vib)   ...       0.00 
freq.    3154.49  E(vib)   ...       0.00 
freq.    3156.61  E(vib)   ...       0.00 
freq.    3161.43  E(vib)   ...       0.00 
freq.    3162.85  E(vib)   ...       0.00 
freq.    3165.53  E(vib)   ...       0.00 
freq.    3167.22  E(vib)   ...       0.00 
freq.    3171.60  E(vib)   ...       0.00 
freq.    3174.22  E(vib)   ...       0.00 
freq.    3176.34  E(vib)   ...       0.00 
freq.    3180.54  E(vib)   ...       0.00 
freq.    3183.55  E(vib)   ...       0.00 
freq.    3189.54  E(vib)   ...       0.00 
freq.    3191.70  E(vib)   ...       0.00 
freq.    3193.05  E(vib)   ...       0.00 
freq.    3203.47  E(vib)   ...       0.00 
freq.    3204.58  E(vib)   ...       0.00 
freq.    3206.30  E(vib)   ...       0.00 
freq.    3214.59  E(vib)   ...       0.00 
freq.    3227.69  E(vib)   ...       0.00 
freq.    3244.85  E(vib)   ...       0.00 
freq.    3248.74  E(vib)   ...       0.00 
freq.    3262.56  E(vib)   ...       0.00 
freq.    3288.14  E(vib)   ...       0.00 

------------
INNER ENERGY
------------

The inner energy is: U= E(el) + E(ZPE) + E(vib) + E(rot) + E(trans)
    E(el)   - is the total energy from the electronic structure calculation
              = E(kin-el) + E(nuc-el) + E(el-el) + E(nuc-nuc)
    E(ZPE)  - the the zero temperature vibrational energy from the frequency calculation
    E(vib)  - the the finite temperature correction to E(ZPE) due to population
              of excited vibrational states
    E(rot)  - is the rotational thermal energy
    E(trans)- is the translational thermal energy

Summary of contributions to the inner energy U:
Electronic energy                ...  -1629.05555851 Eh
Zero point energy                ...      0.61208171 Eh     384.09 kcal/mol
Thermal vibrational correction   ...      0.02799915 Eh      17.57 kcal/mol
Thermal rotational correction    ...      0.00141627 Eh       0.89 kcal/mol
Thermal translational correction ...      0.00141627 Eh       0.89 kcal/mol
-----------------------------------------------------------------------
Total thermal energy                  -1628.41264511 Eh


Summary of corrections to the electronic energy:
(perhaps to be used in another calculation)
Total thermal correction                  0.03083169 Eh      19.35 kcal/mol
Non-thermal (ZPE) correction              0.61208171 Eh     384.09 kcal/mol
-----------------------------------------------------------------------
Total correction                          0.64291340 Eh     403.43 kcal/mol


--------
ENTHALPY
--------

The enthalpy is H = U + kB*T
                kB is Boltzmann's constant
Total thermal energy              ...  -1628.41264511 Eh 
Thermal Enthalpy correction       ...      0.00094421 Eh       0.59 kcal/mol
-----------------------------------------------------------------------
Total Enthalpy                    ...  -1628.41170090 Eh


Note: Only C1 symmetry has been detected, increase convergence thresholds 
      if your molecule has a higher symmetry. Symmetry factor of 1.0 is   
      used for the rotational entropy correction. 
 

Note: Rotational entropy computed according to Herzberg 
Infrared and Raman Spectra, Chapter V,1, Van Nostrand Reinhold, 1945 
Point Group:  C1, Symmetry Number:   1  
Rotational constants in cm-1:     0.007843     0.003210     0.002933 

Vibrational entropy computed according to the QRRHO of S. Grimme
Chem.Eur.J. 2012 18 9955 using a reference frequency of 100.0 cm-1


-------
ENTROPY
-------

The entropy contributions are T*S = T*(S(el)+S(vib)+S(rot)+S(trans))
     S(el)   - electronic entropy
     S(vib)  - vibrational entropy
     S(rot)  - rotational entropy
     S(trans)- translational entropy
The entropies will be listed as multiplied by the temperature to get
units of energy

Electronic entropy                ...      0.00000000 Eh      0.00 kcal/mol
Vibrational entropy               ...      0.04847330 Eh     30.42 kcal/mol
Rotational entropy                ...      0.01726306 Eh     10.83 kcal/mol
Translational entropy             ...      0.02096725 Eh     13.16 kcal/mol
-----------------------------------------------------------------------
Final entropy term                ...      0.08670361 Eh     54.41 kcal/mol

In case the symmetry of your molecule has not been determined correctly
or in case you have a reason to use a different symmetry number we print 
out the resulting rotational entropy values for sn=1,12:

 non-linear molecules -----------------------------------
|  sn= 1 | S(rot)=       0.01726306 Eh     10.83 kcal/mol|
|  sn= 2 | S(rot)=       0.01660860 Eh     10.42 kcal/mol|
|  sn= 3 | S(rot)=       0.01622577 Eh     10.18 kcal/mol|
|  sn= 4 | S(rot)=       0.01595415 Eh     10.01 kcal/mol|
|  sn= 5 | S(rot)=       0.01574346 Eh      9.88 kcal/mol|
|  sn= 6 | S(rot)=       0.01557132 Eh      9.77 kcal/mol|
|  sn= 7 | S(rot)=       0.01542577 Eh      9.68 kcal/mol|
|  sn= 8 | S(rot)=       0.01529969 Eh      9.60 kcal/mol|
|  sn= 9 | S(rot)=       0.01518848 Eh      9.53 kcal/mol|
|  sn=10 | S(rot)=       0.01508900 Eh      9.47 kcal/mol|
|  sn=11 | S(rot)=       0.01499901 Eh      9.41 kcal/mol|
|  sn=12 | S(rot)=       0.01491686 Eh      9.36 kcal/mol|
 linear molecules ---------------------------------------
|  Dinfh | S(rot)=       0.01083200 Eh      6.80 kcal/mol|
|  Cinfv | S(rot)=       0.01148645 Eh      7.21 kcal/mol|
 --------------------------------------------------------


-------------------
GIBBS FREE ENERGY
-------------------

The Gibbs free energy is G = H - T*S

Total enthalpy                    ...  -1628.41170090 Eh 
Total entropy correction          ...     -0.08670361 Eh    -54.41 kcal/mol
-----------------------------------------------------------------------
Final Gibbs free energy         ...  -1628.49840451 Eh

For completeness - the Gibbs free energy minus the electronic energy
G-E(el)                           ...      0.55715400 Eh    349.62 kcal/mol


Maximum memory used throughout the entire PROP-calculation: 627.1 MB

--------------------------------
SUGGESTED CITATIONS FOR THIS RUN
--------------------------------

Below you find a list of papers that are relevant to this ORCA run
We neither can nor want to force you to cite these papers, but we appreciate if you do
You receive ORCA, which is the product of decades of hard work by many enthusiastic individuals, for free
The only thing we kindly ask in return is that you cite our papers,
We deeply appreciate it, if you show your appreciation for ORCA by not just citing the generic ORCA reference.

Please note that relegating all ORCA citations to the supporting information does *not* help us.
SI sections are not indexed - citations you put there will not count into any citation statistics
But we need these citations in order to attract the funding resources that allow us to do what we are doing

Therefore, if you are a happy ORCA user, please consider citing a few of the papers listed below in the main body of your paper

In addition to the list printed below, the program has created the file input.bibtex that contains the list in bibtex format
You can import this file easily into all common literature databanks and citation aid programs


List of essential papers. We consider these as the minimum necessary citations

  1. Neese, F.
     Software update: the ORCA program system, version 6.0
     WIRES Comput. Molec. Sci. 2025 15(1), e70019
     doi.org/10.1002/wcms.7019

List of papers to cite with high priority. The work reported in these papers was absolutely
necessary for this run to complete.
Our perspective: the developers of density functionals and basis sets usually get cited in chemistry papers
Good! But without the algorithms to do something with them, the functionals or basis sets would not do anything.
Hence, in our opinion, the algorithm design and method developments papers are equally worthy of getting cited

  1. Neese, F.
     An improvement of the resolution of the identity approximation for the formation of the Coulomb matrix
     J. Comp. Chem. 2003 24(14), 1740-1747
     doi.org/10.1002/jcc.10318
  2. Neese, F.; Wennmohs, F.; Hansen, A.; Becker, U.
     Efficient, approximate and parallel Hartree-Fock and hybrid DFT calculations. A 'chain-of-spheres' algorithm for the Hartree-Fock exchange
     Chem. Phys. 2009 356(1-3), 98-109
     doi.org/10.1016/j.chemphys.2008.10.036
  3. Grimme, S.; Antony, J.; Ehrlich, S.; Krieg, H.
     A consistent and accurate ab initio parametrization of density functional dispersion correction (DFT-D) for the 94 elements H-Pu
     J. Chem. Phys. 2010 132 , 154104
     doi.org/10.1063/1.3382344
  4. Bykov, D.; Petrenko, T.; Izsak, R.; Kossmann, S.; Becker, U.; Valeev, E.; Neese, F.
     Efficient implementation of the analytic second derivatives of Hartree-Fock and hybrid DFT energies: a detailed analysis of different approximations
     Molec. Phys. 2015 113 , 1961-1977
     doi.org/10.1080/00268976.2015.1025114
  5. Helmich-Paris, B.; de Souza, B.; Neese, F.; Izsák, R.
     An improved chain of spheres for exchange algorithm
     J. Chem. Phys. 2021 155(10), 104109
     doi.org/10.1063/5.0058766
  6. Neese, F.
     The SHARK Integral Generation and Digestion System
     J. Comp. Chem. 2022 44(3), 381
     doi.org/10.1002/jcc.26942

List of suggested additional citations. These are papers that are important in the 'surrounding' of 
of this run, or papers that preceded the highly important papers. If you like your results we are grateful for a citation.

  1. Izsak, R.; Neese, F.
     An overlap fitted chain of spheres exchange method
     J. Chem. Phys. 2011 135 , 144105
     doi.org/10.1063/1.3646921
  2. Izsak, R.; Hansen, A.; Neese, F.
     The resolution of identity and chain of spheres approximations for the LPNO-CCSD singles Fock term
     Molec. Phys. 2012 110 , 2413-2417
     doi.org/10.1080/00268976.2012.687466
  3. Neese, F.
     The ORCA program system
     WIRES Comput. Molec. Sci. 2012 2(1), 73-78
     doi.org/10.1002/wcms.81
  4. Izsak, R.; Neese, F.; Klopper, W.
     Robust fitting techniques in the chain of spheres approximation to the Fock exchange: The role of the complementary space
     J. Chem. Phys. 2013 139 , 
     doi.org/10.1063/1.4819264
  5. Neese, F.
     Software update: the ORCA program system, version 4.0
     WIRES Comput. Molec. Sci. 2018 8(1), 1-6
     doi.org/10.1002/wcms.1327
  6. Neese, F.; Wennmohs, F.; Becker, U.; Riplinger, C.
     The ORCA quantum chemistry program package
     J. Chem. Phys. 2020 152(22), 224108
     doi.org/10.1063/5.0004608
  7. Neese, F.
     Software update: The ORCA program system—Version 5.0
     WIRES Comput. Molec. Sci. 2022 12(1), e1606
     doi.org/10.1002/wcms.1606

List of optional additional citations

  1. Neese, F.
     Approximate second-order SCF convergence for spin unrestricted wavefunctions
     Chem. Phys. Lett. 2000 325(1-3), 93-98
     doi.org/10.1016/s0009-2614(00)00662-x

Timings for individual modules:

Sum of individual times          ...     1497.927 sec (=  24.965 min)
Startup calculation              ...       13.038 sec (=   0.217 min)   0.9 %
SCF iterations                   ...      235.899 sec (=   3.932 min)  15.7 %
Property integrals               ...      284.902 sec (=   4.748 min)  19.0 %
SCF Response                     ...      518.442 sec (=   8.641 min)  34.6 %
Property calculations            ...      394.142 sec (=   6.569 min)  26.3 %
SCF Gradient evaluation          ...       51.070 sec (=   0.851 min)   3.4 %
Geometry relaxation              ...        0.433 sec (=   0.007 min)   0.0 %
                             ****ORCA TERMINATED NORMALLY****
TOTAL RUN TIME: 0 days 0 hours 45 minutes 1 seconds 171 msec
