
                                 *****************
                                 * O   R   C   A *
                                 *****************

                                            #,                                       
                                            ###                                      
                                            ####                                     
                                            #####                                    
                                            ######                                   
                                           ########,                                 
                                     ,,################,,,,,                         
                               ,,#################################,,                 
                          ,,##########################################,,             
                       ,#########################################, ''#####,          
                    ,#############################################,,   '####,        
                  ,##################################################,,,,####,       
                ,###########''''           ''''###############################       
              ,#####''   ,,,,##########,,,,          '''####'''          '####       
            ,##' ,,,,###########################,,,                        '##       
           ' ,,###''''                  '''############,,,                           
         ,,##''                                '''############,,,,        ,,,,,,###''
      ,#''                                            '''#######################'''  
     '                                                          ''''####''''         
             ,#######,   #######,   ,#######,      ##                                
            ,#'     '#,  ##    ##  ,#'     '#,    #''#        ,####,   ,####,        
            ##       ##  ##   ,#'  ##            #'  '#       #'       #'  '#        
            ##       ##  #######   ##           ,######,      #####,   #    #        
            '#,     ,#'  ##    ##  '#,     ,#' ,#      #,     #,   #   #,  ,#        
             '#######'   ##     ##  '#######'  #'      '#     '####' # '####'        



                #########################################################
                #                        -***-                          #
                #          Department of theory and spectroscopy        #
                #                                                       #
                #                      Frank Neese                      #
                #                                                       #
                #     Directorship, Architecture, Infrastructure        #
                #                    SHARK, DRIVERS                     #
                #        Core code/Algorithms in most modules           #
                #                                                       #
                #        Max Planck Institute fuer Kohlenforschung      #
                #                Kaiser Wilhelm Platz 1                 #
                #                 D-45470 Muelheim/Ruhr                 #
                #                      Germany                          #
                #                                                       #
                #                  All rights reserved                  #
                #                        -***-                          #
                #########################################################


                         Program Version 6.0.1  -  RELEASE   -


 With contributions from (in alphabetic order):
[Max-Planck-Institut fuer Kohlenforschung]                               
  Daniel Aravena         : Magnetic Suceptibility                        
  Michael Atanasov       : Ab Initio Ligand Field Theory (pilot matlab implementation)
  Alexander A. Auer      : GIAO ZORA, VPT2 properties, NMR spectrum      
  Ute Becker             : All parallelization in ORCA, NUMFREQ, NUMCALC 
  Giovanni Bistoni       : ED, misc. LED, open-shell LED, HFLD           
  Martin Brehm           : Molecular dynamics                            
  Dmytro Bykov           : pre 5.0 version of the SCF Hessian            
  Marcos Casanova-Páez   : Triplet and SCS-CIS(D). UHF-(DLPNO)-IP/EA/STEOM-CCSD. UHF-CVS-IP/STEOM-CCSD   
  Vijay G. Chilkuri      : MRCI spin determinant printing, contributions to CSF-ICE 
  Pauline Colinet        : FMM embedding                                 
  Dipayan Datta          : RHF DLPNO-CCSD density                        
  Achintya Kumar Dutta   : EOM-CC, STEOM-CC                              
  Nicolas Foglia         : Exact transition moments, OPA infrastructure, MCD improvements    
  Dmitry Ganyushin       : Spin-Orbit,Spin-Spin,Magnetic field MRCI      
  Miquel Garcia-Rates    : C-PCM and meta-GGA Hessian, CCSD/C-PCM, Gaussian charge scheme 
  Tiago L. C. Gouveia    : GS-ROHF, GS-ROCIS                             
  Yang Guo               : DLPNO-NEVPT2, F12-NEVPT2, CIM, IAO-localization        
  Andreas Hansen         : Spin unrestricted coupled pair/coupled cluster methods 
  Ingolf Harden          : AUTO-CI MPn and infrastructure                
  Benjamin Helmich-Paris : MC-RPA, TRAH-(SCF,CASSCF), AVAS, COSX integrals, SCF dyn. polar. 
  Lee Huntington         : MR-EOM, pCC                                   
  Robert Izsak           : Overlap fitted RIJCOSX, COSX-SCS-MP3, EOM     
  Riya Kayal             : Wick's Theorem for AUTO-CI, AUTO-CI UHF-CCSDT 
  Emily Kempfer          : AUTO-CI, RHF CISDT and CCSDT                  
  Christian Kollmar      : KDIIS, OOCD, Brueckner-CCSD(T), CCSD density, CASPT2, CASPT2-K, improved NEVPT2 
  Axel Koslowski         : Symmetry handling                             
  Simone Kossmann        : meta-GGA functionals, TD-DFT gradient, OOMP2, (MP2 Hessian; deprecated post 5.0) 
  Lucas Lang             : DCDCAS                                        
  Marvin Lechner         : AUTO-CI (C++ implementation), FIC-MRCC        
  Spencer Leger          : CASSCF response                               
  Dagmar Lenk            : GEPOL surface, SMD, ORCA-2-JSON               
  Dimitrios Liakos       : Extrapolation schemes; Compound Job, initial MDCI parallelization 
  Dimitrios Manganas     : Further ROCIS development; embedding schemes. LFT, Crystal Embedding 
  Dimitrios Pantazis     : SARC Basis sets                               
  Anastasios Papadopoulos: AUTO-CI, single reference methods and gradients 
  Taras Petrenko         : pre 6.0 DFT Hessian and TD-DFT gradient, (ASA, deprecated), ECA, 1-Electron XAS/XES, NRVS 
  Peter Pinski           : DLPNO-MP2, DLPNO-MP2 Gradient                 
  Christoph Reimann      : Effective Core Potentials                     
  Marius Retegan         : Local ZFS, SOC                                
  Christoph Riplinger    : Optimizer, TS searches, QM/MM, DLPNO-CCSD(T), (RO)-DLPNO pert. Triples 
  Michael Roemelt        : Original ROCIS implementation                 
  Masaaki Saitow         : Open-shell DLPNO-CCSD energy and density      
  Barbara Sandhoefer     : DKH picture change effects                    
  Kantharuban Sivalingam : CASSCF convergence/infrastructure, NEVPT2 and variants, FIC-MRCI 
  Bernardo de Souza      : ESD, SOC TD-DFT                               
  Georgi L. Stoychev     : AutoAux, RI-MP2 NMR, DLPNO-MP2 response, X2C  
  Van Anh Tran           : RI-MP2 g-tensors                              
  Willem Van den Heuvel  : Paramagnetic NMR                              
  Zikuan Wang            : NOTCH, Electric field optimization            
  Frank Wennmohs         : Technical directorship and infrastructure     
  Hang Xu                : AUTO-CI-Response properties                   
                                                                         
[FACCTs GmbH]                                                            
  Markus Bursch, Miquel Garcia-Rates, Christoph Riplinger, Bernardo de Souza, Georgi L. Stoychev 
                                                                 
  APM, Basis sets (HGBS, AHGBS, def-TZVP (Ac-Lr), def2-XVPD (La-Lu)), CI-OPT, improved COSX, DLPNO-Multilevel,           
  DOCKER, DRACO, updates on ESD, GOAT, IRC, LR-CPCM, MBIS, meta-GGA TD-DFT gradient, ML-optimized integration grids, 
  MM, NACMEs, nearIR, NEB, NEB-TS, NL-DFT gradient (VV10), 2- and 3-layer-ONIOM, interface openCOSMO-RS, QMMM,   
  Crystal-QMMM, SF, symmetry and pop. for TD-DFT, r2SCAN hybrids, SOLVATOR                                   
                                                                         
[Other institutions]                                                     
  V. Asgeirsson          : NEB                                           
  Christoph Bannwarth    : sTDA-DFT, sTD-DFT, PBEh-3c, B97-3c, D3        
  Sebastian Ehlert       : rSCAN, r2SCAN, r2SCAN-3c, D4, dhf basis sets  
  Marvin Friede          : D4 for Fr, Ra, Ac-Lr                          
  Lars Goerigk           : TD-DFT with DH, B97 family of functionals     
  Stefan Grimme          : VdW corrections, initial TS optimization, DFT functionals, gCP, sTDA/sTD-DF 
  Waldemar Hujo          : DFT-NL                                        
  H. Jonsson             : NEB                                           
  Holger Kruse           : gCP                                           
  Marcel Mueller         : wB97X-3c, vDZP basis set                      
  Hagen Neugebauer       : wr2SCAN                                       
  Tobias Risthaus        : range-separated hybrid DFT                    
  Lukas Wittmann         : regularized MP2, r2SCAN double-hybrids, wr2SCAN        
                                                                         
We gratefully acknowledge several colleagues who have allowed us to      
interface, adapt or use parts of their codes:                            
  Ed Valeev, F. Pavosevic, A. Kumar             : LibInt (2-el integral package), F12 methods 
  Garnet Chan, S. Sharma, J. Yang, R. Olivares  : DMRG                   
  Ulf Ekstrom                                   : XCFun DFT Library      
  Mihaly Kallay                                 : mrcc  (arbitrary order and MRCC methods)
  Frank Weinhold                                : gennbo (NPA and NBO analysis)           
  Simon Mueller                                 : openCOSMO-RS                            
  Christopher J. Cramer and Donald G. Truhlar   : smd solvation model                     
  S Lehtola, MJT Oliveira, MAL Marques          : LibXC Library                           
  Liviu Ungur et al                             : ANISO software                          


 Your calculation uses the libint2 library for the computation of 2-el integrals
 For citations please refer to: http://libint.valeyev.net

 Your ORCA version has been built with support for libXC version: 6.2.2
 For citations please refer to: https://libxc.gitlab.io

 This ORCA versions uses:
   CBLAS   interface :  Fast vector & matrix operations
   LAPACKE interface :  Fast linear algebra routines
   SCALAPACK package :  Parallel linear algebra routines
   Shared memory     :  Shared parallel matrices
   BLAS/LAPACK       :  OpenBLAS 0.3.27  USE64BITINT DYNAMIC_ARCH NO_AFFINITY Zen SINGLE_THREADED
        Core in use  :  Zen
   Copyright (c) 2011-2014, The OpenBLAS Project


NOTE: MaxCore=2560 MB was set to SCF,MP2,MDCI,CIPSI,MRCI and CIS
      => If you want to overwrite this, your respective input block should be placed after the MaxCore statement
Your calculation utilizes the atom-pairwise dispersion correction
with the zero-damping scheme (D30)


XCFun DFT library Copyright 2009-2010 Ulf Ekstrom and contributors.
See http://admol.org/xcfun for more information.
This is free software; see the source code for copying conditions.
There is ABSOLUTELY NO WARRANTY; not even for MERCHANTABILITY or FITNESS FOR A PARTICULAR PURPOSE.
For details see the documentation.
Scientific users of this library should cite U. Ekstrom, L. Visscher, R. Bast, A. J. Thorvaldsen and K. Ruud;
J.Chem.Theor.Comp. 2010, DOI: 10.1021/ct100117s
XCFun Version 0.99 

Warning: RI is on but no J-basis has been assigned. Assigning Def2/J (nothing to worry about!)
================================================================================

----- Orbital basis set information -----
Your calculation utilizes the basis: 6-31G**
   H-He, Li-Ne : W. J. Hehre, R. Ditchfield and J.A. Pople, J. Chem. Phys. 56, 2257 (1972).
                 Note: He and Ne are unpublished basis sets taken from the Gaussian program.
                 Note: Li and B from J. D. Dill and J. A. Pople, J. Chem. Phys. 62, 2921 (1975).
   Na - Ar     : M. M. Francl, W. J. Pietro, W. J. Hehre, J. S. Binkley, M. S. Gordon, 
                 D. J. DeFrees and J. A. Pople, J. Chem. Phys. 77, 3654 (1982).
   K - Zn      : V. A. Rassolov, J. A. Pople, M. A. Ratner, and T. L. Windus, J. Chem. Phys. 109, 1223 (1998).

----- AuxJ basis set information -----
Your calculation utilizes the auxiliary basis: def2/J
   F. Weigend, Phys. Chem. Chem. Phys. 8, 1057 (2006).

================================================================================
                                        WARNINGS
                       Please study these warnings very carefully!
================================================================================

WARNING: SinglePoint found together with IRC
         Switching on EnGrad - energy plus gradient calculation

================================================================================
                                       INPUT FILE
================================================================================
NAME = input.inp
|  1> # Automatically generated ORCA input
|  2> 
|  3> # Number of cores
|  4> %pal nprocs 24 end
|  5> # RAM per core
|  6> %maxcore 2560
|  7> 
|  8> ! wB97X-D3 
|  9> ! 6-31G** 
| 10> ! TightSCF 
| 11> ! NoSym 
| 12> ! IRC 
| 13> 
| 14> %geom
| 15>     Calc_Hess true
| 16>     end
| 17> 
| 18> 
| 19> *xyz 0 1 
| 20> C        -2.27032900     -1.34720200      0.84956800
| 21> C        -1.13180100     -0.58903900      1.20272100
| 22> C         0.09791600     -1.26561900      1.25788900
| 23> C         0.21385100     -2.63157300      1.02943100
| 24> C        -0.91919500     -3.37052400      0.70950300
| 25> C        -2.14476800     -2.72361300      0.61209800
| 26> H         0.99465900     -0.69581300      1.48756000
| 27> H         1.18530700     -3.11421300      1.09056300
| 28> H        -0.85061000     -4.43811400      0.52185300
| 29> H        -3.02655600     -3.29205600      0.33778900
| 30> N        -3.54346100     -0.70445400      0.69989300
| 31> C        -4.53351500     -0.90638300      1.77776900
| 32> C        -3.95861400     -0.37961400     -0.68294500
| 33> C        -5.56141300      0.23999900      1.72614000
| 34> C        -3.81650900     -0.80300200      3.13030700
| 35> C        -5.27085600     -2.26612700      1.75055200
| 36> C        -5.01505600      0.74015900     -0.63478100
| 37> C        -4.50595100     -1.58135100     -1.48821300
| 38> C        -2.75405600      0.17250400     -1.46236200
| 39> H        -6.34989500      0.04097900      2.46143000
| 40> H        -5.05200500      1.16244200      2.03421400
| 41> C        -6.14987700      0.45466300      0.33891400
| 42> H        -3.10938700     -1.62190900      3.28432200
| 43> C         2.65554100      4.90641900      1.83999900
| 44> H         2.02223000      5.73286500      1.50736200
| 45> H         2.78664400      4.99074600      2.91990500
| 46> H         3.63232400      5.01152200      1.35765300
| 47> C         1.63811200      3.59026100     -0.02710100
| 48> H         0.91028500      4.38641800     -0.20179700
| 49> H         2.51387200      3.77650100     -0.65488800
| 50> H         1.18097800      2.64541600     -0.32961100
| 51> C         3.69773600      1.71389300      0.78917700
| 52> H         4.44892400      2.43892900      0.46026900
| 53> H         4.21886600      0.83330000      1.17327200
| 54> H         3.10212100      1.40690400     -0.07155500
| 55> C         3.63922300      2.51614000      3.16063000
| 56> H         4.00850000      1.54661200      3.50336800
| 57> H        -3.26513000      0.13625200      3.19025000
| 58> H        -4.55308300     -0.83174200      3.94040100
| 59> H        -5.86578700     -2.40768600      0.84658900
| 60> H        -4.56081300     -3.09313700      1.82484600
| 61> H        -5.94989800     -2.33849600      2.60743200
| 62> H        -5.39987900      0.90515700     -1.64780100
| 63> H        -4.51196000      1.66406600     -0.32237400
| 64> H        -4.72530500     -1.27383600     -2.51658000
| 65> H        -3.76404300     -2.38237500     -1.53507900
| 66> H        -5.42475300     -1.99162800     -1.06501800
| 67> H        -2.29965500      1.01268300     -0.93167700
| 68> H        -1.98644700     -0.58902600     -1.61977100
| 69> H        -3.09212000      0.52168100     -2.44353800
| 70> H        -6.85575800      1.29250700      0.35282800
| 71> H        -6.72219100     -0.42551400      0.02111000
| 72> B        -1.20185100      0.99015400      1.45580600
| 73> H        -2.29228800      1.49362700      1.47308800
| 74> H        -0.44221800      1.61045400      0.73443200
| 75> C         2.01184800      3.58229300      1.45511600
| 76> C         2.82358600      2.30807800      1.88376300
| 77> O         0.78804800      3.43210400      2.20952600
| 78> O         1.78256800      1.36457700      2.20620100
| 79> B         0.64171000      2.08792700      2.45726200
| 80> H         4.49647500      3.17292000      2.98874000
| 81> H         3.02297900      2.94442100      3.95596800
| 82> C        -0.59431500      1.47596600      3.19633600
| 83> C        -0.45313600      0.37578600      4.08581500
| 84> C        -1.28355300      0.55309400      5.17513700
| 85> H         0.19880400     -0.46352700      3.89187300
| 86> C        -1.93298800      1.77713800      4.97641400
| 87> H        -1.43545200     -0.11338800      6.01038400
| 88> H        -2.67766200      2.26485800      5.59138200
| 89> N        -1.52297000      2.33200900      3.83845900
| 90> C        -2.01146800      3.58731100      3.29642900
| 91> H        -1.17582900      4.26759900      3.13291300
| 92> H        -2.50488500      3.39485600      2.34126500
| 93> H        -2.72222100      4.02114300      4.00042300
| 94> *
| 95> 
| 96> 
| 97>                          ****END OF INPUT****
================================================================================

                     *******************************
                     * Energy+Gradient Calculation *
                     *******************************

---------------------------------
CARTESIAN COORDINATES (ANGSTROEM)
---------------------------------
  C     -2.270329   -1.347202    0.849568
  C     -1.131801   -0.589039    1.202721
  C      0.097916   -1.265619    1.257889
  C      0.213851   -2.631573    1.029431
  C     -0.919195   -3.370524    0.709503
  C     -2.144768   -2.723613    0.612098
  H      0.994659   -0.695813    1.487560
  H      1.185307   -3.114213    1.090563
  H     -0.850610   -4.438114    0.521853
  H     -3.026556   -3.292056    0.337789
  N     -3.543461   -0.704454    0.699893
  C     -4.533515   -0.906383    1.777769
  C     -3.958614   -0.379614   -0.682945
  C     -5.561413    0.239999    1.726140
  C     -3.816509   -0.803002    3.130307
  C     -5.270856   -2.266127    1.750552
  C     -5.015056    0.740159   -0.634781
  C     -4.505951   -1.581351   -1.488213
  C     -2.754056    0.172504   -1.462362
  H     -6.349895    0.040979    2.461430
  H     -5.052005    1.162442    2.034214
  C     -6.149877    0.454663    0.338914
  H     -3.109387   -1.621909    3.284322
  C      2.655541    4.906419    1.839999
  H      2.022230    5.732865    1.507362
  H      2.786644    4.990746    2.919905
  H      3.632324    5.011522    1.357653
  C      1.638112    3.590261   -0.027101
  H      0.910285    4.386418   -0.201797
  H      2.513872    3.776501   -0.654888
  H      1.180978    2.645416   -0.329611
  C      3.697736    1.713893    0.789177
  H      4.448924    2.438929    0.460269
  H      4.218866    0.833300    1.173272
  H      3.102121    1.406904   -0.071555
  C      3.639223    2.516140    3.160630
  H      4.008500    1.546612    3.503368
  H     -3.265130    0.136252    3.190250
  H     -4.553083   -0.831742    3.940401
  H     -5.865787   -2.407686    0.846589
  H     -4.560813   -3.093137    1.824846
  H     -5.949898   -2.338496    2.607432
  H     -5.399879    0.905157   -1.647801
  H     -4.511960    1.664066   -0.322374
  H     -4.725305   -1.273836   -2.516580
  H     -3.764043   -2.382375   -1.535079
  H     -5.424753   -1.991628   -1.065018
  H     -2.299655    1.012683   -0.931677
  H     -1.986447   -0.589026   -1.619771
  H     -3.092120    0.521681   -2.443538
  H     -6.855758    1.292507    0.352828
  H     -6.722191   -0.425514    0.021110
  B     -1.201851    0.990154    1.455806
  H     -2.292288    1.493627    1.473088
  H     -0.442218    1.610454    0.734432
  C      2.011848    3.582293    1.455116
  C      2.823586    2.308078    1.883763
  O      0.788048    3.432104    2.209526
  O      1.782568    1.364577    2.206201
  B      0.641710    2.087927    2.457262
  H      4.496475    3.172920    2.988740
  H      3.022979    2.944421    3.955968
  C     -0.594315    1.475966    3.196336
  C     -0.453136    0.375786    4.085815
  C     -1.283553    0.553094    5.175137
  H      0.198804   -0.463527    3.891873
  C     -1.932988    1.777138    4.976414
  H     -1.435452   -0.113388    6.010384
  H     -2.677662    2.264858    5.591382
  N     -1.522970    2.332009    3.838459
  C     -2.011468    3.587311    3.296429
  H     -1.175829    4.267599    3.132913
  H     -2.504885    3.394856    2.341265
  H     -2.722221    4.021143    4.000423

----------------------------
CARTESIAN COORDINATES (A.U.)
----------------------------
  NO LB      ZA    FRAG     MASS         X           Y           Z
   0 C     6.0000    0    12.011   -4.290300   -2.545843    1.605451
   1 C     6.0000    0    12.011   -2.138794   -1.113122    2.272813
   2 C     6.0000    0    12.011    0.185034   -2.391673    2.377066
   3 C     6.0000    0    12.011    0.404120   -4.972952    1.945343
   4 C     6.0000    0    12.011   -1.737027   -6.369367    1.340766
   5 C     6.0000    0    12.011   -4.053024   -5.146883    1.156698
   6 H     1.0000    0     1.008    1.879633   -1.314896    2.811081
   7 H     1.0000    0     1.008    2.239906   -5.885010    2.060865
   8 H     1.0000    0     1.008   -1.607420   -8.386820    0.986159
   9 H     1.0000    0     1.008   -5.719362   -6.221084    0.638329
  10 N     7.0000    0    14.007   -6.696171   -1.331225    1.322606
  11 C     6.0000    0    12.011   -8.567102   -1.712816    3.359497
  12 C     6.0000    0    12.011   -7.480696   -0.717366   -1.290579
  13 C     6.0000    0    12.011  -10.509547    0.453532    3.261932
  14 C     6.0000    0    12.011   -7.212157   -1.517454    5.915423
  15 C     6.0000    0    12.011   -9.960474   -4.282359    3.308064
  16 C     6.0000    0    12.011   -9.477082    1.398698   -1.199562
  17 C     6.0000    0    12.011   -8.515013   -2.988320   -2.812315
  18 C     6.0000    0    12.011   -5.204412    0.325985   -2.763464
  19 H     1.0000    0     1.008  -11.999563    0.077439    4.651429
  20 H     1.0000    0     1.008   -9.546906    2.196697    3.844107
  21 C     6.0000    0    12.011  -11.621583    0.859189    0.640455
  22 H     1.0000    0     1.008   -5.875890   -3.064964    6.206469
  23 C     6.0000    0    12.011    5.018245    9.271788    3.477094
  24 H     1.0000    0     1.008    3.821461   10.833545    2.848501
  25 H     1.0000    0     1.008    5.265994    9.431143    5.517821
  26 H     1.0000    0     1.008    6.864098    9.470404    2.565592
  27 C     6.0000    0    12.011    3.095583    6.784610   -0.051213
  28 H     1.0000    0     1.008    1.720189    8.289129   -0.381341
  29 H     1.0000    0     1.008    4.750530    7.136553   -1.237559
  30 H     1.0000    0     1.008    2.231725    4.999112   -0.622875
  31 C     6.0000    0    12.011    6.987708    3.238788    1.491328
  32 H     1.0000    0     1.008    8.407248    4.608908    0.869782
  33 H     1.0000    0     1.008    7.972501    1.574709    2.217163
  34 H     1.0000    0     1.008    5.862159    2.658663   -0.135219
  35 C     6.0000    0    12.011    6.877135    4.754816    5.972725
  36 H     1.0000    0     1.008    7.574967    2.922673    6.620406
  37 H     1.0000    0     1.008   -6.170201    0.257479    6.028699
  38 H     1.0000    0     1.008   -8.604080   -1.571765    7.446279
  39 H     1.0000    0     1.008  -11.084731   -4.549867    1.599821
  40 H     1.0000    0     1.008   -8.618688   -5.845182    3.448459
  41 H     1.0000    0     1.008  -11.243678   -4.419117    4.927332
  42 H     1.0000    0     1.008  -10.204292    1.710499   -3.113893
  43 H     1.0000    0     1.008   -8.526369    3.144629   -0.609199
  44 H     1.0000    0     1.008   -8.929532   -2.407201   -4.755647
  45 H     1.0000    0     1.008   -7.113010   -4.502036   -2.900879
  46 H     1.0000    0     1.008  -10.251298   -3.763631   -2.012592
  47 H     1.0000    0     1.008   -4.345718    1.913694   -1.760614
  48 H     1.0000    0     1.008   -3.753841   -1.113098   -3.060924
  49 H     1.0000    0     1.008   -5.843260    0.985834   -4.617618
  50 H     1.0000    0     1.008  -12.955505    2.442484    0.666748
  51 H     1.0000    0     1.008  -12.703100   -0.804105    0.039892
  52 B     5.0000    0    10.810   -2.271169    1.871120    2.751075
  53 H     1.0000    0     1.008   -4.331797    2.822546    2.783733
  54 H     1.0000    0     1.008   -0.835671    3.043317    1.387875
  55 C     6.0000    0    12.011    3.801842    6.769553    2.749771
  56 C     6.0000    0    12.011    5.335804    4.361635    3.559796
  57 O     8.0000    0    15.999    1.489195    6.485737    4.175399
  58 O     8.0000    0    15.999    3.368565    2.578677    4.169116
  59 B     5.0000    0    10.810    1.212656    3.945610    4.643552
  60 H     1.0000    0     1.008    8.497106    5.995950    5.647900
  61 H     1.0000    0     1.008    5.712602    5.564149    7.475696
  62 C     6.0000    0    12.011   -1.123093    2.789172    6.040200
  63 C     6.0000    0    12.011   -0.856303    0.710133    7.721071
  64 C     6.0000    0    12.011   -2.425564    1.045196    9.779592
  65 H     1.0000    0     1.008    0.375685   -0.875939    7.354574
  66 C     6.0000    0    12.011   -3.652818    3.358304    9.404060
  67 H     1.0000    0     1.008   -2.712611   -0.214272   11.357980
  68 H     1.0000    0     1.008   -5.060048    4.279961   10.566181
  69 N     7.0000    0    14.007   -2.877996    4.406858    7.253636
  70 C     6.0000    0    12.011   -3.801124    6.779035    6.229348
  71 H     1.0000    0     1.008   -2.221995    8.064593    5.920348
  72 H     1.0000    0     1.008   -4.733547    6.415348    4.424350
  73 H     1.0000    0     1.008   -5.144252    7.598859    7.559704

--------------------------------
INTERNAL COORDINATES (ANGSTROEM)
--------------------------------
 C      0   0   0     0.000000000000     0.00000000     0.00000000
 C      1   0   0     1.412718720327     0.00000000     0.00000000
 C      2   1   0     1.404637997746   117.18526085     0.00000000
 C      3   2   1     1.389771316478   122.68339485   357.61623012
 C      4   3   2     1.390034439754   119.49403316     1.13727603
 C      5   4   3     1.389248269488   119.18811872     0.61425875
 H      3   2   1     1.087003060679   118.55737926   177.53811026
 H      4   3   2     1.086464564981   120.12956331   180.49007457
 H      5   4   3     1.086123764966   120.71895140   179.67351727
 H      6   5   4     1.084399810344   119.40592947   178.43950217
 N      1   2   3     1.434012791628   120.06920896   183.56343863
 C     11   1   2     1.477429834318   117.22788127   254.79804888
 C     11   1   2     1.479903366187   116.42128717    98.82611010
 C     12  11   1     1.540594541717   108.72081910   158.31131565
 C     12  11   1     1.534322090254   108.70894943    42.24676283
 C     12  11   1     1.547034667002   115.25726417   281.78108097
 C     13  11   1     1.540221101592   108.83090162   201.63021820
 C     13  11   1     1.546675842108   114.53321848    78.35136535
 C     13  11   1     1.537297993616   109.43732026   318.22745980
 H     14  12  11     1.096341283006   108.80184448   174.62453008
 H     14  12  11     1.097864831475   107.83219543   290.74378017
 C     14  12  11     1.522092798507   113.16873198    50.70838856
 H     15  12  11     1.092863586070   112.09291214   293.43269708
 C      7   3   2     5.853865872094   138.45629067   347.18728861
 H     24   7   3     1.093043085796   122.74375087   350.88582017
 H     24   7   3     1.091098532844    99.65086962   109.96941877
 H     24   7   3     1.094444760330   108.57780886   223.62518251
 C     24   7   3     2.500699114449    48.38829462   303.30476308
 H     28  24   7     1.092756515878    90.39457812   132.30609196
 H     28  24   7     1.093506942168    90.75423919   240.82858372
 H     28  24   7     1.092344207693   146.33392875     7.93873290
 C     30  28  24     2.782302905218    85.21252021    80.21412041
 H     32  30  28     1.094596311479    69.20709519   210.18252707
 H     32  30  28     1.092954471867   169.28643369   132.38936434
 H     32  30  28     1.090806605302    64.32625725    85.63354185
 C     32  30  28     2.504159210471   104.12708096   300.29300127
 H     36  32  30     1.092620419980    90.28015898   173.35766767
 H     15  12  11     1.090784140610   110.04038936    53.74203775
 H     15  12  11     1.095271443028   109.63104399   173.33890131
 H     16  12  11     1.091389458723   112.85398097   297.66661950
 H     16  12  11     1.092532013437   110.75502612    59.15189843
 H     16  12  11     1.095709196970   109.85649909   177.67360370
 H     17  13  11     1.096139864129   108.74379510   186.00509243
 H     17  13  11     1.097409615191   107.85051208    69.95771634
 H     18  13  11     1.095545681033   109.96697145   183.85219895
 H     18  13  11     1.092823568101   110.58508081   302.47390634
 H     18  13  11     1.091612724348   112.83254195    63.83207717
 H     19  13  11     1.092706543436   110.83981885   306.16526552
 H     19  13  11     1.092670632470   111.91221652    67.15743737
 H     19  13  11     1.094951226494   109.08269604   186.68172241
 H     22  14  12     1.095647823844   110.20338796   181.24594544
 H     22  14  12     1.096929463704   110.64638344    63.93670719
 B      2   1   3     1.600877743919   122.25276532   176.73659169
 H     53   2   1     1.201181326954   117.09506026     7.68086989
 H     53   2   1     1.217454242493   112.43459211   237.10773889
 C     24   7   3     1.521770437949    14.54321161   323.59880815
 C     32  30  28     1.521615111689    80.75996385   326.47664535
 O     56  24  26     1.445467960150   108.45318659    53.59262149
 O     57  32  30     1.441484955582   108.67518297   111.68127255
 B     59  57  32     1.373981013109   107.21370378   217.35784242
 H     36  32  30     1.093520521986    91.44618188   281.87145817
 H     36  32  30     1.093500716388   145.83565876    49.37314989
 C     60  59  57     1.564763382631   122.43207668   196.40912095
 C     63  60  59     1.421794793169   121.31041356    24.87441750
 C     64  63  60     1.381178098739   109.53426928   140.74326724
 H     64  63  60     1.080317349177   123.28370923   319.46717661
 C     65  64  63     1.399835834621   106.21399887   359.19266999
 H     65  64  63     1.079309554083   128.00203729   177.86616751
 H     67  65  64     1.081940758868   129.25696836   178.54951170
 N     67  65  64     1.330766008354   110.06255257   359.51597425
 C     70  67  65     1.451967605736   125.17257572   178.23574906
 H     71  70  67     1.089872370290   109.73653637   124.00171423
 H     71  70  67     1.092171016741   109.03388385   243.29083664
 H     71  70  67     1.090407072276   108.79935623     3.13669125

---------------------------
INTERNAL COORDINATES (A.U.)
---------------------------
 C      0   0   0     0.000000000000     0.00000000     0.00000000
 C      1   0   0     2.669651485681     0.00000000     0.00000000
 C      2   1   0     2.654381133040   117.18526085     0.00000000
 C      3   2   1     2.626287176923   122.68339485   357.61623012
 C      4   3   2     2.626784407853   119.49403316     1.13727603
 C      5   4   3     2.625298761356   119.18811872     0.61425875
 H      3   2   1     2.054138091418   118.55737926   177.53811026
 H      4   3   2     2.053120482025   120.12956331   180.49007457
 H      5   4   3     2.052476463330   120.71895140   179.67351727
 H      6   5   4     2.049218661226   119.40592947   178.43950217
 N      1   2   3     2.709891448717   120.06920896   183.56343863
 C     11   1   2     2.791937768946   117.22788127   254.79804888
 C     11   1   2     2.796612066762   116.42128717    98.82611010
 C     12  11   1     2.911301767260   108.72081910   158.31131565
 C     12  11   1     2.899448551805   108.70894943    42.24676283
 C     12  11   1     2.923471840316   115.25726417   281.78108097
 C     13  11   1     2.910596067695   108.83090162   201.63021820
 C     13  11   1     2.922793759537   114.53321848    78.35136535
 C     13  11   1     2.905072194162   109.43732026   318.22745980
 H     14  12  11     2.071784774194   108.80184448   174.62453008
 H     14  12  11     2.074663863551   107.83219543   290.74378017
 C     14  12  11     2.876338539593   113.16873198    50.70838856
 H     15  12  11     2.065212879408   112.09291214   293.43269708
 C      7   3   2    11.062203322966   138.45629067   347.18728861
 H     24   7   3     2.065552084730   122.74375087   350.88582017
 H     24   7   3     2.061877412198    99.65086962   109.96941877
 H     24   7   3     2.068200865729   108.57780886   223.62518251
 C     24   7   3     4.725636469648    48.38829462   303.30476308
 H     28  24   7     2.065010546068    90.39457812   132.30609196
 H     28  24   7     2.066428646239    90.75423919   240.82858372
 H     28  24   7     2.064231396515   146.33392875     7.93873290
 C     30  28  24     5.257790512476    85.21252021    80.21412041
 H     32  30  28     2.068487255896    69.20709519   210.18252707
 H     32  30  28     2.065384628673   169.28643369   132.38936434
 H     32  30  28     2.061325749093    64.32625725    85.63354185
 C     32  30  28     4.732175103527   104.12708096   300.29300127
 H     36  32  30     2.064753362092    90.28015898   173.35766767
 H     15  12  11     2.061283296977   110.04038936    53.74203775
 H     15  12  11     2.069763069627   109.63104399   173.33890131
 H     16  12  11     2.062427182434   112.85398097   297.66661950
 H     16  12  11     2.064586297938   110.75502612    59.15189843
 H     16  12  11     2.070590304692   109.85649909   177.67360370
 H     17  13  11     2.071404147678   108.74379510   186.00509243
 H     17  13  11     2.073803629443   107.85051208    69.95771634
 H     18  13  11     2.070281304353   109.96697145   183.85219895
 H     18  13  11     2.065137256405   110.58508081   302.47390634
 H     18  13  11     2.062849093321   112.83254195    63.83207717
 H     19  13  11     2.064916111837   110.83981885   306.16526552
 H     19  13  11     2.064848249946   111.91221652    67.15743737
 H     19  13  11     2.069157948075   109.08269604   186.68172241
 H     22  14  12     2.070474326291   110.20338796   181.24594544
 H     22  14  12     2.072896274629   110.64638344    63.93670719
 B      2   1   3     3.025220509896   122.25276532   176.73659169
 H     53   2   1     2.269903745122   117.09506026     7.68086989
 H     53   2   1     2.300655098893   112.43459211   237.10773889
 C     24   7   3     2.875729366420    14.54321161   323.59880815
 C     32  30  28     2.875435842329    80.75996385   326.47664535
 O     56  24  26     2.731538580042   108.45318659    53.59262149
 O     57  32  30     2.724011792217   108.67518297   111.68127255
 B     59  57  32     2.596447827984   107.21370378   217.35784242
 H     36  32  30     2.066454308376    91.44618188   281.87145817
 H     36  32  30     2.066416881220   145.83565876    49.37314989
 C     60  59  57     2.956974257560   122.43207668   196.40912095
 C     63  60  59     2.686802777724   121.31041356    24.87441750
 C     64  63  60     2.610048348787   109.53426928   140.74326724
 H     64  63  60     2.041503927668   123.28370923   319.46717661
 C     65  64  63     2.645306359883   106.21399887   359.19266999
 H     65  64  63     2.039599470941   128.00203729   177.86616751
 H     67  65  64     2.044571727388   129.25696836   178.54951170
 N     67  65  64     2.514783304120   110.06255257   359.51597425
 C     70  67  65     2.743821130167   125.17257572   178.23574906
 H     71  70  67     2.059560300775   109.73653637   124.00171423
 H     71  70  67     2.063904113048   109.03388385   243.29083664
 H     71  70  67     2.060570741092   108.79935623     3.13669125

---------------------
BASIS SET INFORMATION
---------------------
There are 5 groups of distinct atoms

 Group   1 Type C   : 10s4p1d contracted to 3s2p1d pattern {631/31/1}
 Group   2 Type H   : 4s1p contracted to 2s1p pattern {31/1}
 Group   3 Type N   : 10s4p1d contracted to 3s2p1d pattern {631/31/1}
 Group   4 Type B   : 10s4p1d contracted to 3s2p1d pattern {631/31/1}
 Group   5 Type O   : 10s4p1d contracted to 3s2p1d pattern {631/31/1}

Atom   0C    basis set group =>   1
Atom   1C    basis set group =>   1
Atom   2C    basis set group =>   1
Atom   3C    basis set group =>   1
Atom   4C    basis set group =>   1
Atom   5C    basis set group =>   1
Atom   6H    basis set group =>   2
Atom   7H    basis set group =>   2
Atom   8H    basis set group =>   2
Atom   9H    basis set group =>   2
Atom  10N    basis set group =>   3
Atom  11C    basis set group =>   1
Atom  12C    basis set group =>   1
Atom  13C    basis set group =>   1
Atom  14C    basis set group =>   1
Atom  15C    basis set group =>   1
Atom  16C    basis set group =>   1
Atom  17C    basis set group =>   1
Atom  18C    basis set group =>   1
Atom  19H    basis set group =>   2
Atom  20H    basis set group =>   2
Atom  21C    basis set group =>   1
Atom  22H    basis set group =>   2
Atom  23C    basis set group =>   1
Atom  24H    basis set group =>   2
Atom  25H    basis set group =>   2
Atom  26H    basis set group =>   2
Atom  27C    basis set group =>   1
Atom  28H    basis set group =>   2
Atom  29H    basis set group =>   2
Atom  30H    basis set group =>   2
Atom  31C    basis set group =>   1
Atom  32H    basis set group =>   2
Atom  33H    basis set group =>   2
Atom  34H    basis set group =>   2
Atom  35C    basis set group =>   1
Atom  36H    basis set group =>   2
Atom  37H    basis set group =>   2
Atom  38H    basis set group =>   2
Atom  39H    basis set group =>   2
Atom  40H    basis set group =>   2
Atom  41H    basis set group =>   2
Atom  42H    basis set group =>   2
Atom  43H    basis set group =>   2
Atom  44H    basis set group =>   2
Atom  45H    basis set group =>   2
Atom  46H    basis set group =>   2
Atom  47H    basis set group =>   2
Atom  48H    basis set group =>   2
Atom  49H    basis set group =>   2
Atom  50H    basis set group =>   2
Atom  51H    basis set group =>   2
Atom  52B    basis set group =>   4
Atom  53H    basis set group =>   2
Atom  54H    basis set group =>   2
Atom  55C    basis set group =>   1
Atom  56C    basis set group =>   1
Atom  57O    basis set group =>   5
Atom  58O    basis set group =>   5
Atom  59B    basis set group =>   4
Atom  60H    basis set group =>   2
Atom  61H    basis set group =>   2
Atom  62C    basis set group =>   1
Atom  63C    basis set group =>   1
Atom  64C    basis set group =>   1
Atom  65H    basis set group =>   2
Atom  66C    basis set group =>   1
Atom  67H    basis set group =>   2
Atom  68H    basis set group =>   2
Atom  69N    basis set group =>   3
Atom  70C    basis set group =>   1
Atom  71H    basis set group =>   2
Atom  72H    basis set group =>   2
Atom  73H    basis set group =>   2
---------------------------------
AUXILIARY/J BASIS SET INFORMATION
---------------------------------
There are 5 groups of distinct atoms

 Group   1 Type C   : 12s5p4d2f1g contracted to 6s4p3d1f1g pattern {711111/2111/211/2/1}
 Group   2 Type H   : 5s2p1d contracted to 3s1p1d pattern {311/2/1}
 Group   3 Type N   : 12s5p4d2f1g contracted to 6s4p3d1f1g pattern {711111/2111/211/2/1}
 Group   4 Type B   : 12s5p4d2f1g contracted to 6s4p3d1f1g pattern {711111/2111/211/2/1}
 Group   5 Type O   : 12s5p4d2f1g contracted to 6s4p3d1f1g pattern {711111/2111/211/2/1}

Atom   0C    basis set group =>   1
Atom   1C    basis set group =>   1
Atom   2C    basis set group =>   1
Atom   3C    basis set group =>   1
Atom   4C    basis set group =>   1
Atom   5C    basis set group =>   1
Atom   6H    basis set group =>   2
Atom   7H    basis set group =>   2
Atom   8H    basis set group =>   2
Atom   9H    basis set group =>   2
Atom  10N    basis set group =>   3
Atom  11C    basis set group =>   1
Atom  12C    basis set group =>   1
Atom  13C    basis set group =>   1
Atom  14C    basis set group =>   1
Atom  15C    basis set group =>   1
Atom  16C    basis set group =>   1
Atom  17C    basis set group =>   1
Atom  18C    basis set group =>   1
Atom  19H    basis set group =>   2
Atom  20H    basis set group =>   2
Atom  21C    basis set group =>   1
Atom  22H    basis set group =>   2
Atom  23C    basis set group =>   1
Atom  24H    basis set group =>   2
Atom  25H    basis set group =>   2
Atom  26H    basis set group =>   2
Atom  27C    basis set group =>   1
Atom  28H    basis set group =>   2
Atom  29H    basis set group =>   2
Atom  30H    basis set group =>   2
Atom  31C    basis set group =>   1
Atom  32H    basis set group =>   2
Atom  33H    basis set group =>   2
Atom  34H    basis set group =>   2
Atom  35C    basis set group =>   1
Atom  36H    basis set group =>   2
Atom  37H    basis set group =>   2
Atom  38H    basis set group =>   2
Atom  39H    basis set group =>   2
Atom  40H    basis set group =>   2
Atom  41H    basis set group =>   2
Atom  42H    basis set group =>   2
Atom  43H    basis set group =>   2
Atom  44H    basis set group =>   2
Atom  45H    basis set group =>   2
Atom  46H    basis set group =>   2
Atom  47H    basis set group =>   2
Atom  48H    basis set group =>   2
Atom  49H    basis set group =>   2
Atom  50H    basis set group =>   2
Atom  51H    basis set group =>   2
Atom  52B    basis set group =>   4
Atom  53H    basis set group =>   2
Atom  54H    basis set group =>   2
Atom  55C    basis set group =>   1
Atom  56C    basis set group =>   1
Atom  57O    basis set group =>   5
Atom  58O    basis set group =>   5
Atom  59B    basis set group =>   4
Atom  60H    basis set group =>   2
Atom  61H    basis set group =>   2
Atom  62C    basis set group =>   1
Atom  63C    basis set group =>   1
Atom  64C    basis set group =>   1
Atom  65H    basis set group =>   2
Atom  66C    basis set group =>   1
Atom  67H    basis set group =>   2
Atom  68H    basis set group =>   2
Atom  69N    basis set group =>   3
Atom  70C    basis set group =>   1
Atom  71H    basis set group =>   2
Atom  72H    basis set group =>   2
Atom  73H    basis set group =>   2


           ************************************************************
           *        Program running with 24 parallel MPI-processes    *
           *              working on a common directory               *
           ************************************************************
------------------------------------------------------------------------------
                             ORCA STARTUP CALCULATIONS
                           -- RI-GTO INTEGRALS CHOSEN --
------------------------------------------------------------------------------
------------------------------------------------------------------------------
                   ___                                                        
                  /   \      - P O W E R E D   B Y -                         
                 /     \                                                     
                 |  |  |   _    _      __       _____    __    __             
                 |  |  |  | |  | |    /  \     |  _  \  |  |  /  |          
                  \  \/   | |  | |   /    \    | | | |  |  | /  /          
                 / \  \   | |__| |  /  /\  \   | |_| |  |  |/  /          
                |  |  |   |  __  | /  /__\  \  |    /   |      \           
                |  |  |   | |  | | |   __   |  |    \   |  |\   \          
                \     /   | |  | | |  |  |  |  | |\  \  |  | \   \       
                 \___/    |_|  |_| |__|  |__|  |_| \__\ |__|  \__/        
                                                                              
                      - O R C A' S   B I G   F R I E N D -                    
                                      &                                       
                       - I N T E G R A L  F E E D E R -                       
                                                                              
 v1 FN, 2020, v2 2021, v3 2022-2024                                           
------------------------------------------------------------------------------


----------------------
SHARK INTEGRAL PACKAGE
----------------------

Number of atoms                             ...     74
Number of basis functions                   ...    658
Number of shells                            ...    318
Maximum angular momentum                    ...      2
Integral batch strategy                     ... SHARK/LIBINT Hybrid
RI-J (if used) integral strategy            ... SPLIT-RIJ (Revised 2003 algorithm where possible)
Printlevel                                  ...      1
Contraction scheme used                     ... SEGMENTED contraction
Prescreening option                         ... SCHWARTZ
   Thresh                                   ... 2.500e-11
   Tcut                                     ... 2.500e-12
   Tpresel                                  ... 2.500e-12 
Coulomb Range Separation                    ... NOT USED
Exchange Range Separation                   ... Long Range
   Mu parameter                             ... 2.500e-01
   Scaling (regular/separated)              ... 1.957e-01 8.043e-01
Multipole approximations                    ... NOT USED
Finite Nucleus Model                        ... NOT USED
CABS basis                                  ... NOT available
Auxiliary Coulomb fitting basis             ... AVAILABLE
   # of basis functions in Aux-J            ...   2030
   # of shells in Aux-J                     ...    690
   Maximum angular momentum in Aux-J        ...      4
Auxiliary J/K fitting basis                 ... NOT available
Auxiliary Correlation fitting basis         ... NOT available
Auxiliary 'external' fitting basis          ... NOT available

Checking pre-screening integrals            ... done (  0.0 sec) Dimension = 318
Check shell pair data                       ... done (  0.0 sec)
Shell pair information
Shell pair cut-off parameter TPreSel        ...   2.5e-12
Total number of shell pairs                 ...     50721
Shell pairs after pre-screening             ...     31556
Total number of primitive shell pairs       ...    239193
Primitive shell pairs kept                  ...     82737
          la=0 lb=0:  10389 shell pairs
          la=1 lb=0:  12028 shell pairs
          la=1 lb=1:   3542 shell pairs
          la=2 lb=0:   3374 shell pairs
          la=2 lb=1:   1946 shell pairs
          la=2 lb=2:    277 shell pairs

Calculating one electron integrals          ... done (  0.0 sec)
Calculating RI/J V-Matrix + Cholesky decomp.... done (  0.4 sec)
Calculating Nuclear repulsion               ... done (  0.0 sec) ENN=   3579.537736690934 Eh

Diagonalization of the overlap matrix:
Smallest eigenvalue                        ... 4.070e-04
Time for diagonalization                   ...    0.071 sec
Threshold for overlap eigenvalues          ... 1.000e-07
Number of eigenvalues below threshold      ... 0
Time for construction of square roots      ...    0.045 sec
Total time needed                          ...    0.174 sec

-------------------
DFT GRID GENERATION
-------------------

General Integration Accuracy     IntAcc      ... 4.388
Radial Grid Type                 RadialGrid  ... OptM3 with GC (2021)
Angular Grid (max. ang.)         AngularGrid ... 4 (Lebedev-302)
Angular grid pruning method      GridPruning ... 4 (adaptive)
Weight generation scheme         WeightScheme... mBecke (2022)
Basis function cutoff            BFCut       ... 1.0000e-11
Integration weight cutoff        WCut        ... 1.0000e-14
Partially contracted basis set               ... off
Rotationally invariant grid construction     ... off
Angular grids for H and He will be reduced by one unit

Total number of grid points                  ...   319786
Total number of batches                      ...     5032
Average number of points per batch           ...       63
Average number of grid points per atom       ...     4321

--------------------
COSX GRID GENERATION
--------------------

GRIDX 1
-------
General Integration Accuracy     IntAcc      ... 3.816
Radial Grid Type                 RadialGrid  ... OptM3 with GC (2021)
Angular Grid (max. ang.)         AngularGrid ... 1 (Lebedev-50)
Angular grid pruning method      GridPruning ... 4 (adaptive)
Weight generation scheme         WeightScheme... mBecke (2022)
Basis function cutoff            BFCut       ... 1.0000e-11
Integration weight cutoff        WCut        ... 1.0000e-14
Partially contracted basis set               ... on
Rotationally invariant grid construction     ... off
Angular grids for H and He will be reduced by one unit

Total number of grid points                  ...    40587
Total number of batches                      ...      355
Average number of points per batch           ...      114
Average number of grid points per atom       ...      548
UseSFitting                                  ... on

GRIDX 2
-------
General Integration Accuracy     IntAcc      ... 4.020
Radial Grid Type                 RadialGrid  ... OptM3 with GC (2021)
Angular Grid (max. ang.)         AngularGrid ... 2 (Lebedev-110)
Angular grid pruning method      GridPruning ... 4 (adaptive)
Weight generation scheme         WeightScheme... mBecke (2022)
Basis function cutoff            BFCut       ... 1.0000e-11
Integration weight cutoff        WCut        ... 1.0000e-14
Partially contracted basis set               ... on
Rotationally invariant grid construction     ... off
Angular grids for H and He will be reduced by one unit

Total number of grid points                  ...    84217
Total number of batches                      ...      701
Average number of points per batch           ...      120
Average number of grid points per atom       ...     1138
UseSFitting                                  ... on

GRIDX 3
-------
General Integration Accuracy     IntAcc      ... 4.338
Radial Grid Type                 RadialGrid  ... OptM3 with GC (2021)
Angular Grid (max. ang.)         AngularGrid ... 3 (Lebedev-194)
Angular grid pruning method      GridPruning ... 4 (adaptive)
Weight generation scheme         WeightScheme... mBecke (2022)
Basis function cutoff            BFCut       ... 1.0000e-11
Integration weight cutoff        WCut        ... 1.0000e-14
Partially contracted basis set               ... on
Rotationally invariant grid construction     ... off
Angular grids for H and He will be reduced by one unit

Total number of grid points                  ...   182179
Total number of batches                      ...     1463
Average number of points per batch           ...      124
Average number of grid points per atom       ...     2462
UseSFitting                                  ... on
Initializing property integral containers    ... done (  0.1 sec)

SHARK setup successfully completed in   4.8 seconds

Maximum memory used throughout the entire STARTUP-calculation: 99.3 MB


           ************************************************************
           *        Program running with 24 parallel MPI-processes    *
           *              working on a common directory               *
           ************************************************************
-------------------------------------------------------------------------------
                                 ORCA GUESS
                   Start orbitals & Density for SCF / CASSCF
-------------------------------------------------------------------------------

------------
SCF SETTINGS
------------
Hamiltonian:
 Density Functional     Method          .... DFT(GTOs)
 Exchange Functional    Exchange        .... WB97X-D3
 Correlation Functional Correlation     .... WB97X-D3
 Gradients option       PostSCFGGA      .... off
 Hybrid DFT is turned on
   Fraction HF Exchange ScalHFX         ....  0.195728
   Scaling of DF-GGA-X  ScalDFX         ....  0.000000
   Scaling of DF-GGA-C  ScalDFC         ....  1.000000
   Scaling of DF-LDA-C  ScalLDAC        ....  1.000000
   Perturbative correction              ....  0.000000
 Long-range corrected/Screened/Range-Separated Hybrid DFT is turned on
   Amount of maximum screened exact exchange              ....  0.804272
   Range separation parameter mu (erf(mu*r12)/r12)        ....  0.250000
 RI-approximation to the Coulomb term is turned on
   Number of AuxJ basis functions       .... 2030
   RIJ-COSX (HFX calculated with COS-X)).... on


General Settings:
 Integral files         IntName         .... input
 Hartree-Fock type      HFTyp           .... RHF
 Total Charge           Charge          ....    0
 Multiplicity           Mult            ....    1
 Number of Electrons    NEL             ....  238
 Basis Dimension        Dim             ....  658
 Nuclear Repulsion      ENuc            ....   3579.5377366909 Eh

Convergence Acceleration:
 AO-DIIS                CNVDIIS         .... on
   Start iteration      DIISMaxIt       ....    12
   Startup error        DIISStart       ....  0.200000
   # of expansion vecs  DIISMaxEq       ....     5
   Bias factor          DIISBfac        ....   1.050
   Max. coefficient     DIISMaxC        ....  10.000
 MO-DIIS                CNVKDIIS        .... off
 Trust-Rad. Augm. Hess. CNVTRAH         .... auto
   Auto Start mean grad. ratio tolernc. ....  1.125000
   Auto Start start iteration           ....    50
   Auto Start num. interpolation iter.  ....    10
   Max. Number of Micro iterations      ....    24
   Max. Number of Macro iterations      .... Maxiter - #DIIS iter
   Number of Davidson start vectors     ....     2
   Converg. threshold    (grad. norm)   ....   1.000e-05
   Grad. Scal. Fac. for Micro threshold ....   0.100
   Minimum threshold for Micro iter.    ....   1.000e-02
   NR start threshold (gradient norm)   ....   1.000e-04
   Initial trust radius                 ....   0.400
   Minimum AH scaling param. (alpha)    ....   1.000
   Maximum AH scaling param. (alpha)    .... 1000.000
   Quad. conv. algorithm                .... NR
   White noise on init. David. guess    .... on
   Maximum white noise                  ....   0.010
   Pseudo random numbers                .... off
   Inactive MOs                         .... canonical
   Orbital update algorithm             .... Taylor
   Preconditioner                       .... Diag
   Full preconditioner red. dimension   ....   250
 SOSCF                  CNVSOSCF        .... on
   Start iteration      SOSCFMaxIt      ....   150
   Startup grad/error   SOSCFStart      ....  0.003300
   Hessian update       SOSCFHessUp     .... L-BFGS
 Level Shifting         CNVShift        .... on
   Level shift para.    LevelShift      ....    0.2500
   Turn off err/grad.   ShiftErr        ....    0.0010
 Zerner damping         CNVZerner       .... off
 Static damping         CNVDamp         .... on
   Fraction old density DampFac         ....    0.7000
   Max. Damping (<1)    DampMax         ....    0.9800
   Min. Damping (>=0)   DampMin         ....    0.0000
   Turn off err/grad.   DampErr         ....    0.1000

SCF Procedure:
 Maximum # iterations   MaxIter         ....   125
 SCF integral mode      SCFMode         .... Direct
   Integral package                     .... SHARK and LIBINT hybrid scheme
 Reset frequency        DirectResetFreq ....    20
 Integral Threshold     Thresh          ....  2.500e-11 Eh
 Primitive CutOff       TCut            ....  2.500e-12 Eh

Convergence Tolerance:
 Convergence Check Mode ConvCheckMode   .... Total+1el-Energy
 Convergence forced     ConvForced      .... 0
 Energy Change          TolE            ....  1.000e-08 Eh
 1-El. energy change                    ....  1.000e-05 Eh
 Orbital Gradient       TolG            ....  1.000e-05
 Orbital Rotation angle TolX            ....  1.000e-05
 DIIS Error             TolErr          ....  5.000e-07

------------------------------
INITIAL GUESS: MODEL POTENTIAL
------------------------------
Loading Hartree-Fock densities                     ... done
Calculating cut-offs                               ... done
Initializing the effective Hamiltonian             ... done
Setting up the integral package (SHARK)            ... done
Starting the Coulomb interaction                   ... done (   0.3 sec)
Making the grid                                    ... done (   0.4 sec)
Mapping shells                                     ... done
Starting the XC term evaluation                    ... done (   0.1 sec)
  promolecular density results
     # of electrons  =    237.976224425
     EX              =   -182.559603577
     EC              =     -7.972936648
     EX+EC           =   -190.532540225
Transforming the Hamiltonian                       ... done (   0.1 sec)
Diagonalizing the Hamiltonian                      ... done (   0.1 sec)
Back transforming the eigenvectors                 ... done (   0.1 sec)
Now organizing SCF variables                       ... done
                      ------------------
                      INITIAL GUESS DONE (   1.2 sec)
                      ------------------
             **** ENERGY FILE WAS UPDATED (input.en.tmp) ****
Finished Guess after   1.6 sec
Maximum memory used throughout the entire GUESS-calculation: 63.7 MB


           ************************************************************
           *        Program running with 24 parallel MPI-processes    *
           *              working on a common directory               *
           ************************************************************

-------------------------------------------------------------------------------------------
                                      ORCA LEAN-SCF
                              memory conserving SCF solver
-------------------------------------------------------------------------------------------

----------------------------------------D-I-I-S--------------------------------------------
Iteration    Energy (Eh)           Delta-E    RMSDP     MaxDP     DIISErr   Damp  Time(sec)
-------------------------------------------------------------------------------------------
               ***  Starting incremental Fock matrix formation  ***
    1    -1324.6527673452142153     0.00e+00  1.19e-03  5.12e-02  1.88e-01  0.700  10.9
    2    -1324.9858930271598183    -3.33e-01  9.22e-04  3.98e-02  9.87e-02  0.700   5.5
                               ***Turning on AO-DIIS***
    3    -1325.1615729314148666    -1.76e-01  4.69e-04  2.17e-02  5.14e-02  0.700   5.0
    4    -1325.2661896227168654    -1.05e-01  1.00e-03  4.06e-02  3.20e-02  0.000   5.2
    5    -1325.4883206109493585    -2.22e-01  9.04e-05  4.32e-03  4.43e-03  0.000   5.5
                              *** Initializing SOSCF ***
---------------------------------------S-O-S-C-F--------------------------------------
Iteration    Energy (Eh)           Delta-E    RMSDP     MaxDP     MaxGrad    Time(sec)
--------------------------------------------------------------------------------------
    6    -1325.4888144743840712    -4.94e-04  4.82e-05  1.98e-03  2.79e-03     4.3
               *** Restarting incremental Fock matrix formation ***
    7    -1325.4890221350920001    -2.08e-04  2.96e-05  1.06e-03  1.45e-03    11.0
    8    -1325.4890587272670928    -3.66e-05  3.40e-05  1.66e-03  4.11e-04     7.1
    9    -1325.4890681784668232    -9.45e-06  1.18e-05  4.09e-04  2.86e-04     6.9
   10    -1325.4890713596855676    -3.18e-06  2.56e-06  1.02e-04  4.35e-05     6.3
   11    -1325.4890714769749138    -1.17e-07  9.40e-07  6.64e-05  2.79e-05     5.2
   12    -1325.4890715196356723    -4.27e-08  3.62e-07  1.51e-05  6.74e-06     4.1
   13    -1325.4890714860334811     3.36e-08  1.36e-07  5.98e-06  2.06e-06     3.3
                  *** Gradient check signals convergence ***

               *****************************************************
               *                     SUCCESS                       *
               *           SCF CONVERGED AFTER  13 CYCLES          *
               *****************************************************

Recomputing exchange energy using gridx3       ... done (   18.746 sec)
Old exchange energy                            :    -62.157643553 Eh
New exchange energy                            :    -62.157666474 Eh
Exchange energy change after final integration :     -0.000022921 Eh
Total energy after final integration           :  -1325.489094407 Eh
             **** ENERGY FILE WAS UPDATED (input.en.tmp) ****

----------------
TOTAL SCF ENERGY
----------------

Total Energy       :      -1325.48909440695957 Eh          -36068.39194 eV

Components:
Nuclear Repulsion  :       3579.53773669093380 Eh           97404.17375 eV
Electronic Energy  :      -4905.02680817696728 Eh         -133472.56506 eV
One Electron Energy:      -8921.39312549290298 Eh         -242763.44880 eV
Two Electron Energy:       4016.36631731593570 Eh          109290.88374 eV

Virial components:
Potential Energy   :      -2641.76493175897122 Eh          -71886.07841 eV
Kinetic Energy     :       1316.27583735201165 Eh           35817.68647 eV
Virial Ratio       :          2.00699948809627

DFT components:
N(Alpha)           :      118.999858430364 electrons
N(Beta)            :      118.999858430364 electrons
N(Total)           :      237.999716860728 electrons
E(XC)              :     -133.937104083268 Eh       

---------------
SCF CONVERGENCE
---------------

  Last Energy change         ...   -3.3602e-08  Tolerance :   1.0000e-08
  Last MAX-Density change    ...    5.9773e-06  Tolerance :   1.0000e-07
  Last RMS-Density change    ...    1.3566e-07  Tolerance :   5.0000e-09
  Last DIIS Error            ...    2.7902e-03  Tolerance :   5.0000e-07
  Last Orbital Gradient      ...    2.0628e-06  Tolerance :   1.0000e-05
  Last Orbital Rotation      ...    3.9219e-06  Tolerance :   1.0000e-05


----------------
ORBITAL ENERGIES
----------------

  NO   OCC          E(Eh)            E(eV) 
   0   2.0000     -19.251530      -523.8608 
   1   2.0000     -19.247932      -523.7628 
   2   2.0000     -14.514086      -394.9484 
   3   2.0000     -14.389171      -391.5492 
   4   2.0000     -10.351804      -281.6869 
   5   2.0000     -10.351416      -281.6763 
   6   2.0000     -10.347048      -281.5575 
   7   2.0000     -10.327208      -281.0176 
   8   2.0000     -10.305289      -280.4212 
   9   2.0000     -10.302976      -280.3582 
  10   2.0000     -10.302555      -280.3468 
  11   2.0000     -10.301029      -280.3052 
  12   2.0000     -10.291074      -280.0344 
  13   2.0000     -10.285346      -279.8785 
  14   2.0000     -10.281819      -279.7825 
  15   2.0000     -10.278487      -279.6919 
  16   2.0000     -10.278366      -279.6886 
  17   2.0000     -10.273271      -279.5499 
  18   2.0000     -10.262155      -279.2474 
  19   2.0000     -10.262037      -279.2442 
  20   2.0000     -10.260299      -279.1969 
  21   2.0000     -10.258700      -279.1534 
  22   2.0000     -10.257204      -279.1127 
  23   2.0000     -10.256477      -279.0929 
  24   2.0000     -10.252509      -278.9849 
  25   2.0000     -10.250022      -278.9173 
  26   2.0000     -10.247938      -278.8606 
  27   2.0000     -10.247105      -278.8379 
  28   2.0000     -10.243418      -278.7376 
  29   2.0000     -10.238888      -278.6143 
  30   2.0000      -6.890067      -187.4882 
  31   2.0000      -6.790816      -184.7875 
  32   2.0000      -1.180982       -32.1362 
  33   2.0000      -1.127132       -30.6708 
  34   2.0000      -1.109383       -30.1878 
  35   2.0000      -1.020963       -27.7818 
  36   2.0000      -0.939412       -25.5627 
  37   2.0000      -0.936397       -25.4807 
  38   2.0000      -0.926998       -25.2249 
  39   2.0000      -0.902757       -24.5653 
  40   2.0000      -0.892784       -24.2939 
  41   2.0000      -0.868882       -23.6435 
  42   2.0000      -0.862773       -23.4772 
  43   2.0000      -0.833960       -22.6932 
  44   2.0000      -0.826810       -22.4986 
  45   2.0000      -0.823701       -22.4140 
  46   2.0000      -0.819195       -22.2914 
  47   2.0000      -0.802025       -21.8242 
  48   2.0000      -0.793957       -21.6047 
  49   2.0000      -0.780782       -21.2462 
  50   2.0000      -0.771054       -20.9815 
  51   2.0000      -0.764833       -20.8122 
  52   2.0000      -0.736626       -20.0446 
  53   2.0000      -0.705647       -19.2016 
  54   2.0000      -0.701036       -19.0762 
  55   2.0000      -0.693239       -18.8640 
  56   2.0000      -0.678507       -18.4631 
  57   2.0000      -0.664928       -18.0936 
  58   2.0000      -0.661089       -17.9891 
  59   2.0000      -0.659578       -17.9480 
  60   2.0000      -0.652370       -17.7519 
  61   2.0000      -0.635519       -17.2933 
  62   2.0000      -0.617025       -16.7901 
  63   2.0000      -0.598880       -16.2963 
  64   2.0000      -0.581887       -15.8339 
  65   2.0000      -0.575059       -15.6482 
  66   2.0000      -0.569798       -15.5050 
  67   2.0000      -0.564729       -15.3671 
  68   2.0000      -0.555721       -15.1219 
  69   2.0000      -0.549716       -14.9585 
  70   2.0000      -0.548132       -14.9154 
  71   2.0000      -0.542259       -14.7556 
  72   2.0000      -0.541673       -14.7397 
  73   2.0000      -0.536206       -14.5909 
  74   2.0000      -0.529389       -14.4054 
  75   2.0000      -0.528321       -14.3764 
  76   2.0000      -0.515220       -14.0199 
  77   2.0000      -0.514615       -14.0034 
  78   2.0000      -0.506902       -13.7935 
  79   2.0000      -0.502968       -13.6865 
  80   2.0000      -0.501930       -13.6582 
  81   2.0000      -0.496895       -13.5212 
  82   2.0000      -0.495941       -13.4952 
  83   2.0000      -0.495177       -13.4745 
  84   2.0000      -0.493693       -13.4341 
  85   2.0000      -0.486276       -13.2322 
  86   2.0000      -0.484716       -13.1898 
  87   2.0000      -0.481702       -13.1078 
  88   2.0000      -0.478586       -13.0230 
  89   2.0000      -0.472693       -12.8626 
  90   2.0000      -0.467226       -12.7139 
  91   2.0000      -0.464799       -12.6478 
  92   2.0000      -0.460707       -12.5365 
  93   2.0000      -0.459898       -12.5145 
  94   2.0000      -0.458474       -12.4757 
  95   2.0000      -0.450286       -12.2529 
  96   2.0000      -0.446061       -12.1379 
  97   2.0000      -0.440803       -11.9949 
  98   2.0000      -0.435728       -11.8568 
  99   2.0000      -0.434434       -11.8216 
 100   2.0000      -0.430850       -11.7240 
 101   2.0000      -0.429061       -11.6753 
 102   2.0000      -0.424192       -11.5428 
 103   2.0000      -0.422405       -11.4942 
 104   2.0000      -0.413579       -11.2541 
 105   2.0000      -0.412103       -11.2139 
 106   2.0000      -0.397828       -10.8254 
 107   2.0000      -0.393322       -10.7028 
 108   2.0000      -0.389514       -10.5992 
 109   2.0000      -0.378164       -10.2904 
 110   2.0000      -0.373775       -10.1709 
 111   2.0000      -0.367651       -10.0043 
 112   2.0000      -0.363015        -9.8781 
 113   2.0000      -0.359093        -9.7714 
 114   2.0000      -0.345174        -9.3927 
 115   2.0000      -0.328574        -8.9409 
 116   2.0000      -0.300707        -8.1827 
 117   2.0000      -0.288553        -7.8519 
 118   2.0000      -0.258723        -7.0402 
 119   0.0000       0.031573         0.8591 
 120   0.0000       0.099076         2.6960 
 121   0.0000       0.103394         2.8135 
 122   0.0000       0.138266         3.7624 
 123   0.0000       0.154505         4.2043 
 124   0.0000       0.165316         4.4985 
 125   0.0000       0.175646         4.7796 
 126   0.0000       0.180921         4.9231 
 127   0.0000       0.190533         5.1847 
 128   0.0000       0.194198         5.2844 
 129   0.0000       0.200004         5.4424 
*Only the first 10 virtual orbitals were printed.

                    ********************************
                    * MULLIKEN POPULATION ANALYSIS *
                    ********************************

-----------------------
MULLIKEN ATOMIC CHARGES
-----------------------
   0 C :    0.119174
   1 C :    0.084546
   2 C :   -0.202458
   3 C :   -0.111236
   4 C :   -0.146922
   5 C :   -0.101827
   6 H :    0.114724
   7 H :    0.102309
   8 H :    0.106450
   9 H :    0.100787
  10 N :   -0.500527
  11 C :    0.154412
  12 C :    0.154173
  13 C :   -0.183923
  14 C :   -0.321821
  15 C :   -0.326756
  16 C :   -0.186611
  17 C :   -0.326301
  18 C :   -0.338425
  19 H :    0.093385
  20 H :    0.099001
  21 C :   -0.228899
  22 H :    0.119400
  23 C :   -0.354341
  24 H :    0.130045
  25 H :    0.127989
  26 H :    0.118008
  27 C :   -0.351646
  28 H :    0.130176
  29 H :    0.114060
  30 H :    0.148856
  31 C :   -0.354414
  32 H :    0.114318
  33 H :    0.131447
  34 H :    0.140181
  35 C :   -0.352577
  36 H :    0.133943
  37 H :    0.112409
  38 H :    0.092587
  39 H :    0.100559
  40 H :    0.111345
  41 H :    0.098997
  42 H :    0.095846
  43 H :    0.106766
  44 H :    0.100795
  45 H :    0.112764
  46 H :    0.097864
  47 H :    0.129536
  48 H :    0.124353
  49 H :    0.097734
  50 H :    0.106262
  51 H :    0.099627
  52 B :    0.045503
  53 H :   -0.107540
  54 H :   -0.099733
  55 C :    0.212029
  56 C :    0.218500
  57 O :   -0.506832
  58 O :   -0.497124
  59 B :    0.664749
  60 H :    0.115644
  61 H :    0.126377
  62 C :   -0.088719
  63 C :   -0.074927
  64 C :   -0.184488
  65 H :    0.159084
  66 C :    0.087663
  67 H :    0.139928
  68 H :    0.156893
  69 N :   -0.367318
  70 C :   -0.217001
  71 H :    0.177620
  72 H :    0.174795
  73 H :    0.128755
Sum of atomic charges:   -0.0000000

--------------------------------
MULLIKEN REDUCED ORBITAL CHARGES
--------------------------------
  0 C s       :     3.128966  s :     3.128966
      pz      :     0.977151  p :     2.693256
      px      :     0.814726
      py      :     0.901379
      dz2     :     0.004512  d :     0.058604
      dxz     :     0.007302
      dyz     :     0.006628
      dx2y2   :     0.021141
      dxy     :     0.019020

  1 C s       :     3.218167  s :     3.218167
      pz      :     0.918644  p :     2.664983
      px      :     0.833926
      py      :     0.912412
      dz2     :     0.002979  d :     0.032305
      dxz     :     0.005782
      dyz     :     0.003743
      dx2y2   :     0.007915
      dxy     :     0.011886

  2 C s       :     3.194013  s :     3.194013
      pz      :     0.993792  p :     2.972691
      px      :     1.015439
      py      :     0.963460
      dz2     :     0.002677  d :     0.035754
      dxz     :     0.003897
      dyz     :     0.005422
      dx2y2   :     0.011344
      dxy     :     0.012414

  3 C s       :     3.156904  s :     3.156904
      pz      :     0.999584  p :     2.918952
      px      :     0.964944
      py      :     0.954424
      dz2     :     0.003369  d :     0.035380
      dxz     :     0.003382
      dyz     :     0.005788
      dx2y2   :     0.010747
      dxy     :     0.012093

  4 C s       :     3.166485  s :     3.166485
      pz      :     1.002944  p :     2.945089
      px      :     0.938934
      py      :     1.003212
      dz2     :     0.003081  d :     0.035347
      dxz     :     0.006718
      dyz     :     0.002872
      dx2y2   :     0.012842
      dxy     :     0.009834

  5 C s       :     3.162104  s :     3.162104
      pz      :     0.999587  p :     2.905464
      px      :     0.956739
      py      :     0.949138
      dz2     :     0.002724  d :     0.034259
      dxz     :     0.004320
      dyz     :     0.005605
      dx2y2   :     0.010139
      dxy     :     0.011471

  6 H s       :     0.872184  s :     0.872184
      pz      :     0.002872  p :     0.013092
      px      :     0.006116
      py      :     0.004104

  7 H s       :     0.885496  s :     0.885496
      pz      :     0.002657  p :     0.012195
      px      :     0.006530
      py      :     0.003009

  8 H s       :     0.881299  s :     0.881299
      pz      :     0.002833  p :     0.012251
      px      :     0.001895
      py      :     0.007523

  9 H s       :     0.886517  s :     0.886517
      pz      :     0.003169  p :     0.012696
      px      :     0.006211
      py      :     0.003317

 10 N s       :     3.556497  s :     3.556497
      pz      :     1.114613  p :     3.908997
      px      :     1.135798
      py      :     1.658586
      dz2     :     0.009410  d :     0.035033
      dxz     :     0.010009
      dyz     :     0.004313
      dx2y2   :     0.004177
      dxy     :     0.007124

 11 C s       :     3.144527  s :     3.144527
      pz      :     0.852652  p :     2.636798
      px      :     0.871573
      py      :     0.912574
      dz2     :     0.013507  d :     0.064263
      dxz     :     0.015921
      dyz     :     0.008645
      dx2y2   :     0.009003
      dxy     :     0.017187

 12 C s       :     3.145845  s :     3.145845
      pz      :     0.797390  p :     2.636045
      px      :     0.929831
      py      :     0.908824
      dz2     :     0.015188  d :     0.063938
      dxz     :     0.012145
      dyz     :     0.016206
      dx2y2   :     0.007783
      dxy     :     0.012615

 13 C s       :     3.209268  s :     3.209268
      pz      :     0.964410  p :     2.937003
      px      :     0.984447
      py      :     0.988145
      dz2     :     0.007607  d :     0.037652
      dxz     :     0.010757
      dyz     :     0.004810
      dx2y2   :     0.005263
      dxy     :     0.009216

 14 C s       :     3.230926  s :     3.230926
      pz      :     0.965020  p :     3.059987
      px      :     1.025547
      py      :     1.069419
      dz2     :     0.007240  d :     0.030909
      dxz     :     0.009166
      dyz     :     0.002242
      dx2y2   :     0.002884
      dxy     :     0.009376

 15 C s       :     3.232474  s :     3.232474
      pz      :     1.040925  p :     3.063797
      px      :     1.026363
      py      :     0.996508
      dz2     :     0.005878  d :     0.030486
      dxz     :     0.009951
      dyz     :     0.001889
      dx2y2   :     0.004086
      dxy     :     0.008681

 16 C s       :     3.210352  s :     3.210352
      pz      :     0.994460  p :     2.938690
      px      :     0.954865
      py      :     0.989365
      dz2     :     0.009483  d :     0.037569
      dxz     :     0.008077
      dyz     :     0.003696
      dx2y2   :     0.006166
      dxy     :     0.010147

 17 C s       :     3.231937  s :     3.231937
      pz      :     1.015306  p :     3.063858
      px      :     1.037682
      py      :     1.010870
      dz2     :     0.008316  d :     0.030506
      dxz     :     0.003796
      dyz     :     0.004913
      dx2y2   :     0.003571
      dxy     :     0.009910

 18 C s       :     3.239130  s :     3.239130
      pz      :     1.019376  p :     3.068459
      px      :     0.993752
      py      :     1.055331
      dz2     :     0.006322  d :     0.030836
      dxz     :     0.005969
      dyz     :     0.005559
      dx2y2   :     0.002994
      dxy     :     0.009991

 19 H s       :     0.895246  s :     0.895246
      pz      :     0.004373  p :     0.011369
      px      :     0.004666
      py      :     0.002329

 20 H s       :     0.889607  s :     0.889607
      pz      :     0.002505  p :     0.011392
      px      :     0.003383
      py      :     0.005503

 21 C s       :     3.214578  s :     3.214578
      pz      :     0.948821  p :     2.975876
      px      :     0.984222
      py      :     1.042833
      dz2     :     0.009873  d :     0.038446
      dxz     :     0.008857
      dyz     :     0.004691
      dx2y2   :     0.002959
      dxy     :     0.012066

 22 H s       :     0.868796  s :     0.868796
      pz      :     0.002259  p :     0.011805
      px      :     0.004549
      py      :     0.004996

 23 C s       :     3.241557  s :     3.241557
      pz      :     1.062852  p :     3.082560
      px      :     1.035626
      py      :     0.984081
      dz2     :     0.008829  d :     0.030224
      dxz     :     0.004868
      dyz     :     0.003426
      dx2y2   :     0.006143
      dxy     :     0.006960

 24 H s       :     0.858422  s :     0.858422
      pz      :     0.002701  p :     0.011533
      px      :     0.003901
      py      :     0.004931

 25 H s       :     0.860365  s :     0.860365
      pz      :     0.007154  p :     0.011646
      px      :     0.002334
      py      :     0.002158

 26 H s       :     0.870410  s :     0.870410
      pz      :     0.003204  p :     0.011582
      px      :     0.006108
      py      :     0.002270

 27 C s       :     3.241397  s :     3.241397
      pz      :     0.942645  p :     3.080277
      px      :     1.047061
      py      :     1.090571
      dz2     :     0.007539  d :     0.029972
      dxz     :     0.006995
      dyz     :     0.003777
      dx2y2   :     0.003750
      dxy     :     0.007911

 28 H s       :     0.858352  s :     0.858352
      pz      :     0.002222  p :     0.011473
      px      :     0.004506
      py      :     0.004746

 29 H s       :     0.874327  s :     0.874327
      pz      :     0.003851  p :     0.011614
      px      :     0.005323
      py      :     0.002440

 30 H s       :     0.839143  s :     0.839143
      pz      :     0.002481  p :     0.012001
      px      :     0.003354
      py      :     0.006166

 31 C s       :     3.241789  s :     3.241789
      pz      :     1.016696  p :     3.082459
      px      :     1.023761
      py      :     1.042003
      dz2     :     0.005335  d :     0.030165
      dxz     :     0.008336
      dyz     :     0.005312
      dx2y2   :     0.001774
      dxy     :     0.009408

 32 H s       :     0.874097  s :     0.874097
      pz      :     0.002688  p :     0.011586
      px      :     0.004606
      py      :     0.004291

 33 H s       :     0.857014  s :     0.857014
      pz      :     0.002718  p :     0.011540
      px      :     0.003361
      py      :     0.005461

 34 H s       :     0.848156  s :     0.848156
      pz      :     0.005239  p :     0.011663
      px      :     0.003762
      py      :     0.002662

 35 C s       :     3.240326  s :     3.240326
      pz      :     0.987023  p :     3.082070
[...]
freq.     893.21  E(vib)   ...       0.03 
freq.     894.17  E(vib)   ...       0.03 
freq.     904.03  E(vib)   ...       0.03 
freq.     907.10  E(vib)   ...       0.03 
freq.     925.66  E(vib)   ...       0.03 
freq.     929.46  E(vib)   ...       0.03 
freq.     934.44  E(vib)   ...       0.03 
freq.     942.44  E(vib)   ...       0.03 
freq.     949.15  E(vib)   ...       0.03 
freq.     953.56  E(vib)   ...       0.03 
freq.     955.63  E(vib)   ...       0.03 
freq.     963.94  E(vib)   ...       0.03 
freq.     974.41  E(vib)   ...       0.03 
freq.     980.07  E(vib)   ...       0.02 
freq.     987.29  E(vib)   ...       0.02 
freq.     994.43  E(vib)   ...       0.02 
freq.     997.96  E(vib)   ...       0.02 
freq.     999.50  E(vib)   ...       0.02 
freq.    1016.40  E(vib)   ...       0.02 
freq.    1019.96  E(vib)   ...       0.02 
freq.    1024.59  E(vib)   ...       0.02 
freq.    1028.35  E(vib)   ...       0.02 
freq.    1029.28  E(vib)   ...       0.02 
freq.    1051.46  E(vib)   ...       0.02 
freq.    1066.38  E(vib)   ...       0.02 
freq.    1077.02  E(vib)   ...       0.02 
freq.    1088.80  E(vib)   ...       0.02 
freq.    1092.54  E(vib)   ...       0.02 
freq.    1098.90  E(vib)   ...       0.02 
freq.    1112.96  E(vib)   ...       0.01 
freq.    1117.96  E(vib)   ...       0.01 
freq.    1120.90  E(vib)   ...       0.01 
freq.    1141.72  E(vib)   ...       0.01 
freq.    1157.42  E(vib)   ...       0.01 
freq.    1159.24  E(vib)   ...       0.01 
freq.    1161.32  E(vib)   ...       0.01 
freq.    1185.86  E(vib)   ...       0.01 
freq.    1193.03  E(vib)   ...       0.01 
freq.    1195.34  E(vib)   ...       0.01 
freq.    1206.11  E(vib)   ...       0.01 
freq.    1208.75  E(vib)   ...       0.01 
freq.    1223.22  E(vib)   ...       0.01 
freq.    1238.00  E(vib)   ...       0.01 
freq.    1239.83  E(vib)   ...       0.01 
freq.    1246.37  E(vib)   ...       0.01 
freq.    1248.90  E(vib)   ...       0.01 
freq.    1267.12  E(vib)   ...       0.01 
freq.    1267.97  E(vib)   ...       0.01 
freq.    1270.45  E(vib)   ...       0.01 
freq.    1291.03  E(vib)   ...       0.01 
freq.    1300.12  E(vib)   ...       0.01 
freq.    1310.24  E(vib)   ...       0.01 
freq.    1311.37  E(vib)   ...       0.01 
freq.    1318.36  E(vib)   ...       0.01 
freq.    1325.20  E(vib)   ...       0.01 
freq.    1334.83  E(vib)   ...       0.01 
freq.    1347.69  E(vib)   ...       0.01 
freq.    1363.41  E(vib)   ...       0.01 
freq.    1381.42  E(vib)   ...       0.01 
freq.    1398.31  E(vib)   ...       0.00 
freq.    1400.42  E(vib)   ...       0.00 
freq.    1402.77  E(vib)   ...       0.00 
freq.    1409.92  E(vib)   ...       0.00 
freq.    1412.17  E(vib)   ...       0.00 
freq.    1417.56  E(vib)   ...       0.00 
freq.    1418.61  E(vib)   ...       0.00 
freq.    1424.19  E(vib)   ...       0.00 
freq.    1425.37  E(vib)   ...       0.00 
freq.    1429.68  E(vib)   ...       0.00 
freq.    1438.85  E(vib)   ...       0.00 
freq.    1441.07  E(vib)   ...       0.00 
freq.    1460.41  E(vib)   ...       0.00 
freq.    1481.85  E(vib)   ...       0.00 
freq.    1484.14  E(vib)   ...       0.00 
freq.    1488.43  E(vib)   ...       0.00 
freq.    1490.92  E(vib)   ...       0.00 
freq.    1492.14  E(vib)   ...       0.00 
freq.    1494.13  E(vib)   ...       0.00 
freq.    1497.54  E(vib)   ...       0.00 
freq.    1499.07  E(vib)   ...       0.00 
freq.    1500.41  E(vib)   ...       0.00 
freq.    1501.68  E(vib)   ...       0.00 
freq.    1502.31  E(vib)   ...       0.00 
freq.    1505.22  E(vib)   ...       0.00 
freq.    1511.87  E(vib)   ...       0.00 
freq.    1514.13  E(vib)   ...       0.00 
freq.    1514.82  E(vib)   ...       0.00 
freq.    1515.97  E(vib)   ...       0.00 
freq.    1519.63  E(vib)   ...       0.00 
freq.    1522.05  E(vib)   ...       0.00 
freq.    1524.12  E(vib)   ...       0.00 
freq.    1525.58  E(vib)   ...       0.00 
freq.    1529.25  E(vib)   ...       0.00 
freq.    1535.10  E(vib)   ...       0.00 
freq.    1543.50  E(vib)   ...       0.00 
freq.    1544.32  E(vib)   ...       0.00 
freq.    1547.38  E(vib)   ...       0.00 
freq.    1628.38  E(vib)   ...       0.00 
freq.    1655.57  E(vib)   ...       0.00 
freq.    1689.46  E(vib)   ...       0.00 
freq.    2489.89  E(vib)   ...       0.00 
freq.    2603.82  E(vib)   ...       0.00 
freq.    3059.59  E(vib)   ...       0.00 
freq.    3061.94  E(vib)   ...       0.00 
freq.    3068.08  E(vib)   ...       0.00 
freq.    3070.43  E(vib)   ...       0.00 
freq.    3071.11  E(vib)   ...       0.00 
freq.    3074.28  E(vib)   ...       0.00 
freq.    3076.49  E(vib)   ...       0.00 
freq.    3078.19  E(vib)   ...       0.00 
freq.    3078.21  E(vib)   ...       0.00 
freq.    3079.82  E(vib)   ...       0.00 
freq.    3083.55  E(vib)   ...       0.00 
freq.    3100.98  E(vib)   ...       0.00 
freq.    3111.79  E(vib)   ...       0.00 
freq.    3115.13  E(vib)   ...       0.00 
freq.    3124.79  E(vib)   ...       0.00 
freq.    3153.18  E(vib)   ...       0.00 
freq.    3156.26  E(vib)   ...       0.00 
freq.    3160.80  E(vib)   ...       0.00 
freq.    3160.96  E(vib)   ...       0.00 
freq.    3164.34  E(vib)   ...       0.00 
freq.    3166.23  E(vib)   ...       0.00 
freq.    3171.74  E(vib)   ...       0.00 
freq.    3174.83  E(vib)   ...       0.00 
freq.    3175.85  E(vib)   ...       0.00 
freq.    3179.66  E(vib)   ...       0.00 
freq.    3181.24  E(vib)   ...       0.00 
freq.    3183.35  E(vib)   ...       0.00 
freq.    3190.63  E(vib)   ...       0.00 
freq.    3193.57  E(vib)   ...       0.00 
freq.    3195.10  E(vib)   ...       0.00 
freq.    3195.54  E(vib)   ...       0.00 
freq.    3204.50  E(vib)   ...       0.00 
freq.    3205.24  E(vib)   ...       0.00 
freq.    3216.18  E(vib)   ...       0.00 
freq.    3217.83  E(vib)   ...       0.00 
freq.    3228.03  E(vib)   ...       0.00 
freq.    3246.38  E(vib)   ...       0.00 
freq.    3281.61  E(vib)   ...       0.00 
freq.    3305.48  E(vib)   ...       0.00 
freq.    3321.37  E(vib)   ...       0.00 

------------
INNER ENERGY
------------

The inner energy is: U= E(el) + E(ZPE) + E(vib) + E(rot) + E(trans)
    E(el)   - is the total energy from the electronic structure calculation
              = E(kin-el) + E(nuc-el) + E(el-el) + E(nuc-nuc)
    E(ZPE)  - the the zero temperature vibrational energy from the frequency calculation
    E(vib)  - the the finite temperature correction to E(ZPE) due to population
              of excited vibrational states
    E(rot)  - is the rotational thermal energy
    E(trans)- is the translational thermal energy

Summary of contributions to the inner energy U:
Electronic energy                ...  -1325.54116707 Eh
Zero point energy                ...      0.65581375 Eh     411.53 kcal/mol
Thermal vibrational correction   ...      0.02847479 Eh      17.87 kcal/mol
Thermal rotational correction    ...      0.00141627 Eh       0.89 kcal/mol
Thermal translational correction ...      0.00141627 Eh       0.89 kcal/mol
-----------------------------------------------------------------------
Total thermal energy                  -1324.85404599 Eh


Summary of corrections to the electronic energy:
(perhaps to be used in another calculation)
Total thermal correction                  0.03130734 Eh      19.65 kcal/mol
Non-thermal (ZPE) correction              0.65581375 Eh     411.53 kcal/mol
-----------------------------------------------------------------------
Total correction                          0.68712109 Eh     431.17 kcal/mol


--------
ENTHALPY
--------

The enthalpy is H = U + kB*T
                kB is Boltzmann's constant
Total thermal energy              ...  -1324.85404599 Eh 
Thermal Enthalpy correction       ...      0.00094421 Eh       0.59 kcal/mol
-----------------------------------------------------------------------
Total Enthalpy                    ...  -1324.85310178 Eh


Note: Only C1 symmetry has been detected, increase convergence thresholds 
      if your molecule has a higher symmetry. Symmetry factor of 1.0 is   
      used for the rotational entropy correction. 
 

Note: Rotational entropy computed according to Herzberg 
Infrared and Raman Spectra, Chapter V,1, Van Nostrand Reinhold, 1945 
Point Group:  C1, Symmetry Number:   1  
Rotational constants in cm-1:     0.007646     0.003153     0.002980 

Vibrational entropy computed according to the QRRHO of S. Grimme
Chem.Eur.J. 2012 18 9955 using a reference frequency of 100.0 cm-1


-------
ENTROPY
-------

The entropy contributions are T*S = T*(S(el)+S(vib)+S(rot)+S(trans))
     S(el)   - electronic entropy
     S(vib)  - vibrational entropy
     S(rot)  - rotational entropy
     S(trans)- translational entropy
The entropies will be listed as multiplied by the temperature to get
units of energy

Electronic entropy                ...      0.00000000 Eh      0.00 kcal/mol
Vibrational entropy               ...      0.04904371 Eh     30.78 kcal/mol
Rotational entropy                ...      0.01727615 Eh     10.84 kcal/mol
Translational entropy             ...      0.02095749 Eh     13.15 kcal/mol
-----------------------------------------------------------------------
Final entropy term                ...      0.08727735 Eh     54.77 kcal/mol

In case the symmetry of your molecule has not been determined correctly
or in case you have a reason to use a different symmetry number we print 
out the resulting rotational entropy values for sn=1,12:

 non-linear molecules -----------------------------------
|  sn= 1 | S(rot)=       0.01727615 Eh     10.84 kcal/mol|
|  sn= 2 | S(rot)=       0.01662169 Eh     10.43 kcal/mol|
|  sn= 3 | S(rot)=       0.01623886 Eh     10.19 kcal/mol|
|  sn= 4 | S(rot)=       0.01596723 Eh     10.02 kcal/mol|
|  sn= 5 | S(rot)=       0.01575655 Eh      9.89 kcal/mol|
|  sn= 6 | S(rot)=       0.01558440 Eh      9.78 kcal/mol|
|  sn= 7 | S(rot)=       0.01543886 Eh      9.69 kcal/mol|
|  sn= 8 | S(rot)=       0.01531278 Eh      9.61 kcal/mol|
|  sn= 9 | S(rot)=       0.01520157 Eh      9.54 kcal/mol|
|  sn=10 | S(rot)=       0.01510209 Eh      9.48 kcal/mol|
|  sn=11 | S(rot)=       0.01501210 Eh      9.42 kcal/mol|
|  sn=12 | S(rot)=       0.01492995 Eh      9.37 kcal/mol|
 linear molecules ---------------------------------------
|  Dinfh | S(rot)=       0.01081712 Eh      6.79 kcal/mol|
|  Cinfv | S(rot)=       0.01147157 Eh      7.20 kcal/mol|
 --------------------------------------------------------


-------------------
GIBBS FREE ENERGY
-------------------

The Gibbs free energy is G = H - T*S

Total enthalpy                    ...  -1324.85310178 Eh 
Total entropy correction          ...     -0.08727735 Eh    -54.77 kcal/mol
-----------------------------------------------------------------------
Final Gibbs free energy         ...  -1324.94037913 Eh

For completeness - the Gibbs free energy minus the electronic energy
G-E(el)                           ...      0.60078795 Eh    377.00 kcal/mol


Reading the hessian file           ...... done
Determining length of initial displacement:
  Requested energy change (quadratic behavior): 2.000 mEh
  Resulting scaling factor for initial displacement along normalized TS mode: 3.9204

         *************************************************************
         *                          FORWARD IRC                      *
         *************************************************************

Iteration    E(Eh)      dE(kcal/mol)  max(|G|)   RMS(G) 
Convergence thresholds                0.002000  0.000500            
    0     -1325.535092    3.811844    0.030381  0.004439
    1     -1325.539681    0.932328    0.008702  0.001618
    2     -1325.541256   -0.055596    0.004973  0.000870
    3     -1325.541539   -0.233369    0.004560  0.000738
    4     -1325.541710   -0.340537    0.004308  0.000587
    5     -1325.541974   -0.506059    0.003863  0.000492
    6     -1325.542220   -0.660795    0.003423  0.000439
    7     -1325.542448   -0.803501    0.002973  0.000407
    8     -1325.542648   -0.929143    0.002603  0.000362
    9     -1325.542833   -1.045609    0.002181  0.000330
   10     -1325.542999   -1.149782    0.001947  0.000298

                      ***********************HURRAY********************
                      ***            THE IRC HAS CONVERGED          ***
                      *************************************************


         *************************************************************
         *                          BACKWARD IRC                     *
         *************************************************************

Iteration    E(Eh)      dE(kcal/mol)  max(|G|)   RMS(G) 
Convergence thresholds                0.002000  0.000500            
    0     -1325.535922    3.291519    0.025269  0.004251
    1     -1325.539967    0.753185    0.006165  0.001526
    2     -1325.541523   -0.223101    0.004056  0.000767
    3     -1325.541767   -0.376643    0.003462  0.000664
    4     -1325.541890   -0.453734    0.002198  0.000509
    5     -1325.542117   -0.596314    0.001725  0.000396

                      ***********************HURRAY********************
                      ***            THE IRC HAS CONVERGED          ***
                      *************************************************


---------------------------------------------------------------
                       IRC PATH SUMMARY              
---------------------------------------------------------------
All gradients are in Eh/Bohr.

Step        E(Eh)      dE(kcal/mol)  max(|G|)   RMS(G) 
   1     -1325.542117   -0.596314    0.001725  0.000396
   2     -1325.541890   -0.453734    0.002198  0.000509
   3     -1325.541767   -0.376643    0.003462  0.000664
   4     -1325.541523   -0.223101    0.004056  0.000767
   5     -1325.539967    0.753185    0.006165  0.001526
   6     -1325.535922    3.291519    0.025269  0.004251
   7     -1325.541167    0.000000    0.001139  0.000311 <= TS
   8     -1325.535092    3.811844    0.030381  0.004439
   9     -1325.539681    0.932328    0.008702  0.001618
  10     -1325.541256   -0.055596    0.004973  0.000870
  11     -1325.541539   -0.233369    0.004560  0.000738
  12     -1325.541710   -0.340537    0.004308  0.000587
  13     -1325.541974   -0.506059    0.003863  0.000492
  14     -1325.542220   -0.660795    0.003423  0.000439
  15     -1325.542448   -0.803501    0.002973  0.000407
  16     -1325.542648   -0.929143    0.002603  0.000362
  17     -1325.542833   -1.045609    0.002181  0.000330
  18     -1325.542999   -1.149782    0.001947  0.000298

--------------------------------
SUGGESTED CITATIONS FOR THIS RUN
--------------------------------

Below you find a list of papers that are relevant to this ORCA run
We neither can nor want to force you to cite these papers, but we appreciate if you do
You receive ORCA, which is the product of decades of hard work by many enthusiastic individuals, for free
The only thing we kindly ask in return is that you cite our papers,
We deeply appreciate it, if you show your appreciation for ORCA by not just citing the generic ORCA reference.

Please note that relegating all ORCA citations to the supporting information does *not* help us.
SI sections are not indexed - citations you put there will not count into any citation statistics
But we need these citations in order to attract the funding resources that allow us to do what we are doing

Therefore, if you are a happy ORCA user, please consider citing a few of the papers listed below in the main body of your paper

In addition to the list printed below, the program has created the file input.bibtex that contains the list in bibtex format
You can import this file easily into all common literature databanks and citation aid programs


List of essential papers. We consider these as the minimum necessary citations

  1. Neese,F.
     Software update: the ORCA program system, version 5.0
     WIRES Comput. Molec. Sci., 2022 12(1)e1606
     doi.org/10.1002/wcms.1606

List of papers to cite with high priority. The work reported in these papers was absolutely
necessary for this run to complete.
Our perspective: the developers of density functionals and basis sets usually get cited in chemistry papers
Good! But without the algorithms to do something with them, the functionals or basis sets would not do anything.
Hence, in our opinion, the algorithm design and method developments papers are equally worthy of getting cited

  1. Neese,F.
     An improvement of the resolution of the identity approximation for the formation of the Coulomb matrix
     J. Comp. Chem., 2003 24(14)1740-1747
     doi.org/10.1002/jcc.10318
  2. Neese,F.; Wennmohs,F.; Hansen,A.; Becker,U.
     Efficient, approximate and parallel Hartree-Fock and hybrid DFT calculations. A 'chain-of-spheres' algorithm for the Hartree-Fock exchange
     Chem. Phys., 2009 356(1-3)98-109
     doi.org/10.1016/j.chemphys.2008.10.036
  3. Bykov,D.; Petrenko,T.; Izsak,R.; Kossmann,S.; Becker,U.; Valeev,E.; Neese,F.
     Efficient implementation of the analytic second derivatives of Hartree-Fock and hybrid DFT energies: a detailed analysis of different approximations
     Molec. Phys., 2015 113 1961-1977
     doi.org/10.1080/00268976.2015.1025114
  4. Helmich-Paris,B.; de Souza,B.; Neese,F.; Izsák,R.
     An improved chain of spheres for exchange algorithm
     J. Chem. Phys., 2021 155 104109
     doi.org/doi: 10.1063/5.0058766.
  5. Neese,F.
     The SHARK Integral Generation and Digestion System
     J. Comp. Chem., 2022  1-16
     doi.org/10.1002/jcc.26942
  6. Grimme,S.; Antony,J.; Ehrlich,S.; Krieg,H.
     A consistent and accurate ab initio parametrization of density functional dispersion correction (DFT-D) for the 94 elements H-Pu
     J. Chem. Phys., 2010 132 154104
     doi.org/10.1063/1.3382344

List of suggested additional citations. These are papers that are important in the 'surrounding' of 
of this run, or papers that preceded the highly important papers. If you like your results we are grateful for a citation.

  1. Izsak,R.; Neese,F.
     An overlap fitted chain of spheres exchange method
     J. Chem. Phys., 2011 135 144105
     doi.org/10.1063/1.3646921
  2. Izsak,R.; Hansen,A.; Neese,F.
     The resolution of identity and chain of spheres approximations for the LPNO-CCSD singles Fock term
     Molec. Phys., 2012 110 2413-2417
     doi.org/10.1080/00268976.2012.687466
  3. Neese,F.
     The ORCA program system
     WIRES Comput. Molec. Sci., 2012 2(1)73-78
     doi.org/10.1002/wcms.81
  4. Izsak,R.; Neese,F.; Klopper,W.
     Robust fitting techniques in the chain of spheres approximation to the Fock exchange: The role of the complementary space
     J. Chem. Phys., 2013 139 
     doi.org/10.1063/1.4819264
  5. Neese,F.
     Software update: the ORCA program system, version 4.0
     WIRES Comput. Molec. Sci., 2018 8(1)1-6
     doi.org/10.1002/wcms.1327
  6. Neese,F.; Wennmohs,F.; Becker,U.; Riplinger,C.
     The ORCA quantum chemistry program package
     J. Chem. Phys., 2020 152 Art. No. L224108
     doi.org/10.1063/5.0004608

List of optional additional citations

  1. Neese,F.
     Approximate second-order SCF convergence for spin unrestricted wavefunctions
     Chem. Phys. Lett., 2000 325(1-3)93-98
     doi.org/10.1016/s0009-2614(00)00662-x

Timings for individual modules:

Sum of individual times          ...    21172.545 sec (= 352.876 min)
Startup calculation              ...      404.959 sec (=   6.749 min)   1.9 %
SCF iterations                   ...     4627.358 sec (=  77.123 min)  21.9 %
Property calculations            ...        0.657 sec (=   0.011 min)   0.0 %
SCF Gradient evaluation          ...      813.689 sec (=  13.561 min)   3.8 %
Numerical frequency calculation  ...    15325.883 sec (= 255.431 min)  72.4 %
                             ****ORCA TERMINATED NORMALLY****
TOTAL RUN TIME: 0 days 5 hours 50 minutes 58 seconds 316 msec
