
                                 *****************
                                 * O   R   C   A *
                                 *****************

                                            #,                                       
                                            ###                                      
                                            ####                                     
                                            #####                                    
                                            ######                                   
                                           ########,                                 
                                     ,,################,,,,,                         
                               ,,#################################,,                 
                          ,,##########################################,,             
                       ,#########################################, ''#####,          
                    ,#############################################,,   '####,        
                  ,##################################################,,,,####,       
                ,###########''''           ''''###############################       
              ,#####''   ,,,,##########,,,,          '''####'''          '####       
            ,##' ,,,,###########################,,,                        '##       
           ' ,,###''''                  '''############,,,                           
         ,,##''                                '''############,,,,        ,,,,,,###''
      ,#''                                            '''#######################'''  
     '                                                          ''''####''''         
             ,#######,   #######,   ,#######,      ##                                
            ,#'     '#,  ##    ##  ,#'     '#,    #''#        ,####,    ,#,          
            ##       ##  ##   ,#'  ##            #'  '#       #'       ,# #          
            ##       ##  #######   ##           ,######,      #####,      #          
            '#,     ,#'  ##    ##  '#,     ,#' ,#      #,     #,   #      #          
             '#######'   ##     ##  '#######'  #'      '#     '####' #    #          



                #########################################################
                #                        -***-                          #
                #          Department of theory and spectroscopy        #
                #                                                       #
                #                      Frank Neese                      #
                #                                                       #
                #     Directorship, Architecture, Infrastructure        #
                #                    SHARK, DRIVERS                     #
                #        Core code/Algorithms in most modules           #
                #                                                       #
                #        Max Planck Institute fuer Kohlenforschung      #
                #                Kaiser Wilhelm Platz 1                 #
                #                 D-45470 Muelheim/Ruhr                 #
                #                      Germany                          #
                #                                                       #
                #                  All rights reserved                  #
                #                        -***-                          #
                #########################################################


                         Program Version 6.1.0  -  RELEASE   -
                                (GIT: $679e74b7b5$)
                          ($2025-06-10 18:02:51 +0200$)


 With contributions from (in alphabetic order):
[Max-Planck-Institut fuer Kohlenforschung]                               
  Daniel Aravena         : Magnetic Suceptibility                        
  Michael Atanasov       : Ab Initio Ligand Field Theory (pilot matlab implementation)
  Alexander A. Auer      : GIAO ZORA, VPT2 properties, NMR spectrum      
  Ute Becker             : All parallelization in ORCA, NUMFREQ, NUMCALC 
  Giovanni Bistoni       : ED, misc. LED, open-shell LED, HFLD           
  Dmytro Bykov           : pre 5.0 version of the SCF Hessian            
  Marcos Casanova-Páez   : Triplet and SCS-CIS(D). UHF-(DLPNO)-IP/EA/STEOM-CCSD. UHF-CVS-IP/STEOM-CCSD   
  Vijay G. Chilkuri      : MRCI spin determinant printing, contributions to CSF-ICE 
  Pauline Colinet        : FMM embedding                                 
  Dipayan Datta          : RHF DLPNO-CCSD density                        
  Achintya Kumar Dutta   : EOM-CC, STEOM-CC                              
  Nicolas Foglia         : Exact transition moments, OPA infrastructure, MCD improvements    
  Dmitry Ganyushin       : Spin-Orbit,Spin-Spin,Magnetic field MRCI      
  Miquel Garcia-Rates    : C-PCM and meta-GGA Hessian, CCSD/C-PCM, Gaussian charge scheme 
  Tiago L. C. Gouveia    : GS-ROHF, GS-ROCIS                             
  Yang Guo               : DLPNO-NEVPT2, F12-NEVPT2, CIM, IAO-localization        
  Andreas Hansen         : Spin unrestricted coupled pair/coupled cluster methods 
  Ingolf Harden          : AUTO-CI MPn and infrastructure                
  Benjamin Helmich-Paris : MC-RPA, TRAH-(SCF,CASSCF), AVAS, COSX integrals, SCF dyn. polar., MC-PDFT, srDFT 
  Lee Huntington         : MR-EOM, pCC                                   
  Robert Izsak           : Overlap fitted RIJCOSX, COSX-SCS-MP3, EOM     
  Riya Kayal             : Wick's Theorem for AUTO-CI, AUTO-CI UHF-CCSDT 
  Emily Kempfer          : AUTO-CI RHF CISDT and CCSDT, approximate NEVPT4
  Christian Kollmar      : KDIIS, OOCD, Brueckner-CCSD(T), CCSD density, CASPT2, CASPT2-K, improved NEVPT2 
  Axel Koslowski         : Symmetry handling                             
  Simone Kossmann        : meta-GGA functionals, TD-DFT gradient, OOMP2, (MP2 Hessian; deprecated post 5.0) 
  Lucas Lang             : DCDCAS, Hyperfine gauge corrections, ICE-SOC+SSC
  Marvin Lechner         : AUTO-CI (C++ implementation), FIC-MRCC        
  Spencer Leger          : CASSCF response                               
  Dagmar Lenk            : GEPOL surface, SMD, ORCA-2-JSON               
  Dimitrios Liakos       : Extrapolation schemes; Compound Job, Property file
  Dimitrios Manganas     : Further ROCIS development; embedding schemes. LFT, Crystal Embedding 
  Dimitrios Pantazis     : SARC Basis sets                               
  Anastasios Papadopoulos: AUTO-CI, single reference methods and gradients 
  Taras Petrenko         : pre 6.0 DFT Hessian and TD-DFT gradient,  ECA, NRVS 
  Petra Pikulova         : Analytic Raman intensities                    
  Peter Pinski           : DLPNO-MP2, DLPNO-MP2 Gradient                 
  Shashank Vittal Rao    : ES-AILFT, MagRelax                            
  Christoph Reimann      : Effective Core Potentials                     
  Marius Retegan         : Local ZFS, SOC                                
  Christoph Riplinger    : Optimizer, TS searches, QM/MM, DLPNO-CCSD(T), (RO)-DLPNO pert. Triples 
  Michael Roemelt        : Original ROCIS implementation, recursive CI coupling coefficients
  Masaaki Saitow         : Open-shell DLPNO-CCSD energy and density      
  Barbara Sandhoefer     : DKH picture change effects                    
  Yorick L. A. Schmerwitz: GMF and freeze-and-release deltaSCF, NEB S-IDPP initial path                    
  Kantharuban Sivalingam : CASSCF convergence/infrastructure, NEVPT2, NEVPT3, NEVPT4(SD), FIC-MRCI and CEPA variants
  Bernardo de Souza      : ESD, SOC TD-DFT                               
  Georgi L. Stoychev     : AutoAux, RI-MP2 NMR, DLPNO-MP2 response, X2C  
  Van Anh Tran           : RI-MP2 g-tensors                              
  Willem Van den Heuvel  : Paramagnetic NMR                              
  Zikuan Wang            : NOTCH, Electric field optimization            
  Frank Wennmohs         : Technical directorship and infrastructure     
  Hang Xu                : AUTO-CI-Response properties                   
                                                                         
[FACCTs GmbH]                                                            
  Markus Bursch, Nicolas Foglia, Miquel Garcia-Rates, Ingolf Harden, Hagen Neugebauer, Anastasios Papadopoulos, 
  Christoph Riplinger, Bernardo de Souza, Georgi L. Stoychev                                                    
                                                                 
  APM, various basis sets, CI-OPT, improved COSX, DLPNO-Multilevel,           
  DOCKER, DRACO, updates on ESD, Fragmentator, GOAT, IRC, LR-CPCM, L-BFGS, MBIS, meta-GGA TD-DFT gradient, ML-optimized integration grids, 
  MM, NACMEs, nearIR, NEB, NEB-TS, NL-DFT gradient (VV10), 2- and 3-layer-ONIOM, interface openCOSMO-RS, QMMM,   
  Crystal-QMMM, RESP, rigid body optimization, SF, symmetry and pop. for TD-DFT, various functionals, SOLVATOR                                   
                                                                         
[Other institutions]                                                     
  V. Asgeirsson          : NEB                                           
  Christoph Bannwarth    : sTDA-DFT, sTD-DFT, PBEh-3c, B97-3c, D3        
  Giovanni Bistoni       : ETS/NOCV, ADLD/ADEX, COVALED                  
  Martin Brehm           : Molecular dynamics                            
  Ronald Cardenas        : ETS/NOCV                                      
  Martina Colucci        : COVALED                                       
  Sebastian Ehlert       : rSCAN, r2SCAN, r2SCAN-3c, D4, dhf basis sets  
  Marvin Friede          : D4 for Fr, Ra, Ac-Lr                          
  Lars Goerigk           : TD-DFT with DH, B97 family of functionals     
  Stefan Grimme          : VdW corrections, initial TS optimization, DFT functionals, gCP, sTDA/sTD-DF 
  Waldemar Hujo          : DFT-NL                                        
  H. Jonsson             : NEB                                           
  Holger Kruse           : gCP                                           
  Marcel Mueller         : wB97X-3c, vDZP basis set                      
  Hagen Neugebauer       : wr2SCAN, Native XTB                           
  Gianluca Regni         : ADLD/ADEX                                     
  Tobias Risthaus        : pre 6.0 range-separated hybrid DFT and stability analysis
  Lukas Wittmann         : regularized MP2, r2SCAN double-hybrids, wr2SCAN        
                                                                         
We gratefully acknowledge several colleagues who have allowed us to      
interface, adapt or use parts of their codes:                            
  Ed Valeev, F. Pavosevic, A. Kumar             : LibInt (2-el integral package), F12 methods 
  Garnet Chan, S. Sharma, J. Yang, R. Olivares  : DMRG                   
  Ulf Ekstrom                                   : XCFun DFT Library      
  Mihaly Kallay                                 : mrcc  (arbitrary order and MRCC methods)
  Frank Weinhold                                : gennbo (NPA and NBO analysis)           
  Simon Mueller                                 : openCOSMO-RS                            
  Christopher J. Cramer and Donald G. Truhlar   : smd solvation model                     
  S Lehtola, MJT Oliveira, MAL Marques          : LibXC Library                           
  Liviu Ungur et al                             : ANISO software                          


 Your calculation uses the libint2 library for the computation of 2-el integrals
 For citations please refer to: http://libint.valeyev.net

 Your ORCA version has been built with support for libXC version: 7.0.0
 For citations please refer to: https://libxc.gitlab.io

 This ORCA versions uses:
   CBLAS   interface :  Fast vector & matrix operations
   LAPACKE interface :  Fast linear algebra routines
   SCALAPACK package :  Parallel linear algebra routines
   Shared memory     :  Shared parallel matrices


  ***********************************
  * Starting time: Sun Aug 31 21:56:17 2025
  * Host name:     Jacobs-MacBook-Pro.local
  * Process ID:    56097
  * Working dir.:  /Users/jacobmolinnielsen/Developer/FrustActivationProject/FRUST/dev/_e0ifd0
  ***********************************

NOTE: MaxCore=3072 MB was set to SCF,MP2,MDCI,CIPSI,MRCI,RASCI and CIS
      => If you want to overwrite this, your respective input block should be placed after the MaxCore statement
================================================================================

================================================================================
                                        WARNINGS
                       Please study these warnings very carefully!
================================================================================

WARNING: SinglePoint found together with IRC
         Switching on EnGrad - energy plus gradient calculation

WARNING: The environment variable RSH_COMMAND is not set!
  ===> : All Displacements for the Numerical Hessian or Gradient calculation
         will be started on localhost

Using external energy/gradient program given in input:
  "/Users/jacobmolinnielsen/Library/orca-external-tools/umaclient.sh"


WARNING: four-center integrals in TRAH must be done with SHARK!
  ===> : Turning Shark on


================================================================================
                                       INPUT FILE
================================================================================
NAME = input.inp
|  1> # Automatically generated ORCA input
|  2> 
|  3> # Number of cores
|  4> %pal nprocs 10 end
|  5> # RAM per core
|  6> %maxcore 3072
|  7> 
|  8> ! ExtOpt 
|  9> ! IRC 
| 10> 
| 11> %geom
| 12>   Calc_Hess  true
| 13>   NumHess    true
| 14>   MaxIter    300
| 15> end
| 16> 
| 17> %method
| 18>     ProgExt "/Users/jacobmolinnielsen/Library/orca-external-tools/umaclient.sh"
| 19>     Ext_Params "-b 127.0.0.1:59954"
| 20>     end
| 21>     %output
| 22>     Print[P_EXT_OUT] 1
| 23>     Print[P_EXT_GRAD] 1
| 24>     end
| 25> %Output
| 26>   JSONPropFile True
| 27> End
| 28> 
| 29> 
| 30> *xyz 0 1 
| 31> C        -2.40424600     -1.41534000      1.01570300
| 32> C        -1.13044800     -0.87212400      1.25488500
| 33> C        -0.01741000     -1.62911400      0.85709500
| 34> C        -0.13762200     -2.89528500      0.31162700
| 35> C        -1.39981600     -3.44223400      0.12646500
| 36> C        -2.51413700     -2.69629500      0.46488500
| 37> H         0.97298400     -1.20735600      0.98660700
| 38> H         0.74760400     -3.45031300      0.02577000
| 39> H        -1.51578500     -4.43125100     -0.29937300
| 40> H        -3.50365200     -3.09560400      0.28328000
| 41> N        -3.59241300     -0.68035800      1.30547100
| 42> B        -0.91800500      0.54966800      1.93285700
| 43> H         1.12111600      4.07373700      0.69783000
| 44> H         2.69293300      3.62865300      0.01403300
| 45> H         1.38875800      2.43370800      0.09811100
| 46> C         3.98637300      1.31205300      0.82362700
| 47> H         4.73059900      2.10507400      0.72480500
| 48> H         4.51302200      0.36342600      0.93138200
| 49> H         3.39191000      1.27157100     -0.08675500
| 50> C         3.92249500      1.37527100      3.32079900
| 51> H         4.28222900      0.34723300      3.36900700
| 52> H         4.78291100      2.04510100      3.34663000
| 53> H         3.30304900      1.56395700      4.19904500
| 54> C        -0.07871600      0.40221700      3.57468700
| 55> C         0.20321600     -0.87181900      4.06971600
| 56> C        -0.14844500     -1.06441700      5.40753200
| 57> H        -1.81517100      1.27566100      2.20689400
| 58> H        -0.08002700      1.19915600      1.29957500
| 59> C         2.31273400      2.88417500      2.01677400
| 60> C         3.11476700      1.54971700      2.04104300
| 61> O         1.14140700      2.54229300      2.79346700
| 62> O         2.06626700      0.55360800      2.06258300
| 63> B         0.93988300      1.18173600      2.59050400
| 64> C         3.00720900      4.05294000      2.68667100
| 65> H         2.38083500      4.94187200      2.60923000
| 66> H         3.18922200      3.85399700      3.74077100
| 67> H         3.95984900      4.26349100      2.19634500
| 68> C         1.85554900      3.27236200      0.61536400
| 69> H         0.64997300     -1.63347500      3.44647100
| 70> C        -0.69791800      0.07819400      5.94983400
| 71> H        -0.01559400     -1.98578500      5.95402100
| 72> H        -1.05987800      0.20126400      6.95962700
| 73> S        -0.77755600      1.35131000      4.85447000
| 74> C        -4.21595300      0.11960700      0.22481900
| 75> C        -4.34023800     -1.01929200      2.52713700
| 76> C        -5.24196800      0.17129600      2.85906000
| 77> C        -3.36004100     -1.19785900      3.68718300
| 78> C        -5.16984700     -2.31485300      2.43254000
| 79> C        -6.24891000      0.49960300      1.75257900
| 80> H        -4.58595400      1.02713100      3.03690700
| 81> H        -5.76122900     -0.02932200      3.79948200
| 82> C        -5.74136300      0.08247700      0.36946300
| 83> H        -6.46167600      1.57062800      1.76978100
| 84> H        -7.20030900     -0.00092600      1.94618100
| 85> C        -3.87852100     -0.43898000     -1.16081900
| 86> C        -3.73316600      1.57874500      0.25696200
| 87> H        -6.17133300      0.72794000     -0.40003300
| 88> H        -6.07512600     -0.93008900      0.13521500
| 89> H        -4.24198600     -1.46032200     -1.27984100
| 90> H        -2.80436200     -0.43472900     -1.34826900
| 91> H        -4.35672200      0.18450000     -1.91878400
| 92> H        -4.23748100      2.15923100     -0.52030300
| 93> H        -2.65937800      1.62954600      0.07472000
| 94> H        -3.92775300      2.04853100      1.22063500
| 95> H        -5.87707400     -2.30277200      1.60494500
| 96> H        -5.73498800     -2.46032500      3.35679100
| 97> H        -4.51515900     -3.17843000      2.30881600
| 98> H        -2.67758700     -2.03015300      3.50806700
| 99> H        -3.91244700     -1.40484900      4.60651800
|100> H        -2.77345500     -0.29022800      3.82796700
|101> *
|102> 
|103> 
|104>                          ****END OF INPUT****
================================================================================

                     *******************************
                     * Energy+Gradient Calculation *
                     *******************************

---------------------------------
CARTESIAN COORDINATES (ANGSTROEM)
---------------------------------
  C     -2.404246   -1.415340    1.015703
  C     -1.130448   -0.872124    1.254885
  C     -0.017410   -1.629114    0.857095
  C     -0.137622   -2.895285    0.311627
  C     -1.399816   -3.442234    0.126465
  C     -2.514137   -2.696295    0.464885
  H      0.972984   -1.207356    0.986607
  H      0.747604   -3.450313    0.025770
  H     -1.515785   -4.431251   -0.299373
  H     -3.503652   -3.095604    0.283280
  N     -3.592413   -0.680358    1.305471
  B     -0.918005    0.549668    1.932857
  H      1.121116    4.073737    0.697830
  H      2.692933    3.628653    0.014033
  H      1.388758    2.433708    0.098111
  C      3.986373    1.312053    0.823627
  H      4.730599    2.105074    0.724805
  H      4.513022    0.363426    0.931382
  H      3.391910    1.271571   -0.086755
  C      3.922495    1.375271    3.320799
  H      4.282229    0.347233    3.369007
  H      4.782911    2.045101    3.346630
  H      3.303049    1.563957    4.199045
  C     -0.078716    0.402217    3.574687
  C      0.203216   -0.871819    4.069716
  C     -0.148445   -1.064417    5.407532
  H     -1.815171    1.275661    2.206894
  H     -0.080027    1.199156    1.299575
  C      2.312734    2.884175    2.016774
  C      3.114767    1.549717    2.041043
  O      1.141407    2.542293    2.793467
  O      2.066267    0.553608    2.062583
  B      0.939883    1.181736    2.590504
  C      3.007209    4.052940    2.686671
  H      2.380835    4.941872    2.609230
  H      3.189222    3.853997    3.740771
  H      3.959849    4.263491    2.196345
  C      1.855549    3.272362    0.615364
  H      0.649973   -1.633475    3.446471
  C     -0.697918    0.078194    5.949834
  H     -0.015594   -1.985785    5.954021
  H     -1.059878    0.201264    6.959627
  S     -0.777556    1.351310    4.854470
  C     -4.215953    0.119607    0.224819
  C     -4.340238   -1.019292    2.527137
  C     -5.241968    0.171296    2.859060
  C     -3.360041   -1.197859    3.687183
  C     -5.169847   -2.314853    2.432540
  C     -6.248910    0.499603    1.752579
  H     -4.585954    1.027131    3.036907
  H     -5.761229   -0.029322    3.799482
  C     -5.741363    0.082477    0.369463
  H     -6.461676    1.570628    1.769781
  H     -7.200309   -0.000926    1.946181
  C     -3.878521   -0.438980   -1.160819
  C     -3.733166    1.578745    0.256962
  H     -6.171333    0.727940   -0.400033
  H     -6.075126   -0.930089    0.135215
  H     -4.241986   -1.460322   -1.279841
  H     -2.804362   -0.434729   -1.348269
  H     -4.356722    0.184500   -1.918784
  H     -4.237481    2.159231   -0.520303
  H     -2.659378    1.629546    0.074720
  H     -3.927753    2.048531    1.220635
  H     -5.877074   -2.302772    1.604945
  H     -5.734988   -2.460325    3.356791
  H     -4.515159   -3.178430    2.308816
  H     -2.677587   -2.030153    3.508067
  H     -3.912447   -1.404849    4.606518
  H     -2.773455   -0.290228    3.827967

----------------------------
CARTESIAN COORDINATES (A.U.)
----------------------------
  NO LB      ZA    FRAG     MASS         X           Y           Z
   0 C     6.0000    0    12.011   -4.543366   -2.674605    1.919401
   1 C     6.0000    0    12.011   -2.136237   -1.648076    2.371389
   2 C     6.0000    0    12.011   -0.032900   -3.078579    1.619675
   3 C     6.0000    0    12.011   -0.260068   -5.471296    0.588890
   4 C     6.0000    0    12.011   -2.645269   -6.504880    0.238984
   5 C     6.0000    0    12.011   -4.751030   -5.095259    0.878505
   6 H     1.0000    0     1.008    1.838673   -2.281572    1.864417
   7 H     1.0000    0     1.008    1.412767   -6.520147    0.048698
   8 H     1.0000    0     1.008   -2.864419   -8.373851   -0.565733
   9 H     1.0000    0     1.008   -6.620943   -5.849844    0.535322
  10 N     7.0000    0    14.007   -6.788677   -1.285690    2.466983
  11 B     5.0000    0    10.810   -1.734778    1.038722    3.652570
  12 H     1.0000    0     1.008    2.118602    7.698247    1.318708
  13 H     1.0000    0     1.008    5.088906    6.857160    0.026519
  14 H     1.0000    0     1.008    2.624372    4.599042    0.185403
  15 C     6.0000    0    12.011    7.533153    2.479421    1.556429
  16 H     1.0000    0     1.008    8.939537    3.978013    1.369683
  17 H     1.0000    0     1.008    8.528376    0.686776    1.760057
  18 H     1.0000    0     1.008    6.409781    2.402921   -0.163943
  19 C     6.0000    0    12.011    7.412441    2.598886    6.275401
  20 H     1.0000    0     1.008    8.092240    0.656175    6.366501
  21 H     1.0000    0     1.008    9.038392    3.864681    6.324214
  22 H     1.0000    0     1.008    6.241858    2.955450    7.935045
  23 C     6.0000    0    12.011   -0.148752    0.760080    6.755179
  24 C     6.0000    0    12.011    0.384023   -1.647499    7.690649
  25 C     6.0000    0    12.011   -0.280520   -2.011457   10.218755
  26 H     1.0000    0     1.008   -3.430176    2.410650    4.170425
  27 H     1.0000    0     1.008   -0.151229    2.266076    2.455841
  28 C     6.0000    0    12.011    4.370434    5.450301    3.811151
  29 C     6.0000    0    12.011    5.886057    2.928541    3.857012
  30 O     8.0000    0    15.999    2.156947    4.804238    5.278888
  31 O     8.0000    0    15.999    3.904679    1.046168    3.897717
  32 B     5.0000    0    10.810    1.776121    2.233157    4.895343
  33 C     6.0000    0    12.011    5.682801    7.658947    5.077072
  34 H     1.0000    0     1.008    4.499126    9.338785    4.930730
  35 H     1.0000    0     1.008    6.026756    7.282999    7.069033
  36 H     1.0000    0     1.008    7.483030    8.056830    4.150491
  37 C     6.0000    0    12.011    3.506479    6.183868    1.162869
  38 H     1.0000    0     1.008    1.228271   -3.086820    6.512886
  39 C     6.0000    0    12.011   -1.318874    0.147765   11.243557
  40 H     1.0000    0     1.008   -0.029468   -3.752590   11.251469
  41 H     1.0000    0     1.008   -2.002879    0.380334   13.151789
  42 S    16.0000    0    32.060   -1.469368    2.553606    9.173619
  43 C     6.0000    0    12.011   -7.966997    0.226024    0.424846
  44 C     6.0000    0    12.011   -8.201861   -1.926183    4.775597
  45 C     6.0000    0    12.011   -9.905884    0.323703    5.402840
  46 C     6.0000    0    12.011   -6.349557   -2.263625    6.967766
  47 C     6.0000    0    12.011   -9.769595   -4.374438    4.596834
  48 C     6.0000    0    12.011  -11.808729    0.944113    3.311894
  49 H     1.0000    0     1.008   -8.666197    1.940996    5.738923
  50 H     1.0000    0     1.008  -10.887145   -0.055411    7.179980
  51 C     6.0000    0    12.011  -10.849604    0.155859    0.698184
  52 H     1.0000    0     1.008  -12.210798    2.968057    3.344401
  53 H     1.0000    0     1.008  -13.606612   -0.001750    3.677749
  54 C     6.0000    0    12.011   -7.329342   -0.829552   -2.193630
  55 C     6.0000    0    12.011   -7.054661    2.983396    0.485588
  56 H     1.0000    0     1.008  -11.662129    1.375607   -0.755953
  57 H     1.0000    0     1.008  -11.480324   -1.757613    0.255519
  58 H     1.0000    0     1.008   -8.016192   -2.759609   -2.418549
  59 H     1.0000    0     1.008   -5.299476   -0.821519   -2.547859
  60 H     1.0000    0     1.008   -8.233011    0.348654   -3.625976
  61 H     1.0000    0     1.008   -8.007679    4.080355   -0.983230
  62 H     1.0000    0     1.008   -5.025496    3.079396    0.141200
  63 H     1.0000    0     1.008   -7.422377    3.871163    2.306666
  64 H     1.0000    0     1.008  -11.106060   -4.351608    3.032907
  65 H     1.0000    0     1.008  -10.837557   -4.649340    6.343416
  66 H     1.0000    0     1.008   -8.532414   -6.006362    4.363030
  67 H     1.0000    0     1.008   -5.059906   -3.836433    6.629286
  68 H     1.0000    0     1.008   -7.393453   -2.654780    8.705057
  69 H     1.0000    0     1.008   -5.241070   -0.548451    7.233809

--------------------------------
INTERNAL COORDINATES (ANGSTROEM)
--------------------------------
 C      0   0   0     0.000000000000     0.00000000     0.00000000
 C      1   0   0     1.405294629814     0.00000000     0.00000000
 C      2   1   0     1.403611176090   117.52092899     0.00000000
 C      3   2   1     1.383898574755   122.42935954   356.67048772
 C      4   3   2     1.388010039042   119.47884096     0.98708204
 C      5   4   3     1.382991098728   119.17736913     1.40673808
 H      3   2   1     1.084220200856   118.73200555   176.96316004
 H      4   3   2     1.083233758848   120.12049462   180.55883685
 H      5   4   3     1.083024209099   120.64209922   179.96120095
 H      6   5   4     1.082389943011   119.77267361   177.26272348
 N      1   2   3     1.426851377697   121.40745884   184.17510563
 B      2   1   3     1.589424597865   122.65191796   179.31852946
 H     12   2   1     4.254687821701   132.93468178   236.78440043
 H     13  12   2     1.770956460717   109.22544358   315.75051947
 H     13  12   2     1.766632457521    53.28934611   338.96105288
 C     14  13  12     2.773998024231   120.73291590   332.70175299
 H     16  14  13     1.092025839072    71.63352540   220.71443454
 H     16  14  13     1.090350170521   168.70195722   129.91856541
 H     16  14  13     1.088035126555    62.10317366    96.54585167
 C     16  14  13     2.498788688944   104.98787590   311.21425159
 H     20  16  14     1.090226899074    90.68174202   169.97221442
 H     20  16  14     1.090713144010    91.09087915   278.51766313
 H     20  16  14     1.091160753523   145.41041351    45.09675907
 C     12   2   1     1.849798251654   111.58832037   115.17248835
 C     24  12   2     1.395602770405   118.63667882   356.56775060
 C     25  24  12     1.396606994964   114.50671472   226.65442007
 H     12   2   1     1.186199369825   123.02012352   355.37827243
 H     12   2   1     1.234944485453   110.02414776   226.32008634
 C     13  12   2     2.138837180550    68.12065206   262.06164477
 C     16  14  13     1.516008876355    80.52434358   336.18163100
 O     29  13  12     1.446423955520    90.65433967   322.43324770
 O     30  16  14     1.446391842303   108.70940522   108.36050841
 B     31  29  13     1.390295383073   105.68208843   112.62848536
 C     29  13  12     1.515608505340    95.67918690   213.84818279
 H     34  29  13     1.090202548603   109.51906348    24.93757272
 H     34  29  13     1.088041294905   111.33755044   144.68408623
 H     34  29  13     1.091913128173   110.48664610   265.86114036
 C     13  12   2     1.090135020660    74.69022171   306.49167665
 H     25  24  12     1.080808035411   121.48584353    46.16120107
 C     26  25  24     1.378974957805   111.27073568   359.54404924
 H     26  25  24     1.079452920116   124.86692193   179.28416965
 H     40  26  25     1.079742177258   126.57026928   179.57697128
 S     40  26  25     1.681365175385   112.95929268   359.85635718
 C     11   1   2     1.482077891991   118.70494799    93.56253386
 C     11   1   2     1.471932845797   118.22988494   257.57709034
 C     45  11   1     1.529963939632   107.47636086   160.79992479
 C     45  11   1     1.529175939653   109.32047032    44.17123116
 C     45  11   1     1.541323454052   114.58665736   284.01583295
 C     46  45  11     1.531671596973   113.42462933    60.24919691
 H     46  45  11     1.092903230314   106.91242773   298.65231980
 H     46  45  11     1.092828031361   108.89788695   183.60991062
 C     49  46  45     1.531211261238   112.10032217   332.32179607
 H     49  46  45     1.092089662155   109.08149714   209.93869719
 H     49  46  45     1.092323702684   110.26378242    93.83191755
 C     44  11   1     1.531624124332   111.72227821    25.92777504
 C     44  11   1     1.537270361017   111.40454570   266.04187410
 H     52  49  46     1.092529532454   110.17028659   208.48223819
 H     52  49  46     1.091585896771   110.19310247    91.80142971
 H     55  44  11     1.090601908889   111.52154093    60.81142921
 H     55  44  11     1.090400445149   111.78535275   299.46762827
 H     55  44  11     1.091748344641   108.86375274   180.17643897
 H     56  44  11     1.093361100299   110.13370741   182.42230072
 H     56  44  11     1.090327270644   110.48855668    63.06506802
 H     56  44  11     1.089600219023   111.81727898   303.15052931
 H     48  45  11     1.088682444111   112.76676122   303.63635985
 H     48  45  11     1.093062836101   109.77069961   183.22235323
 H     48  45  11     1.090728765757   110.45011900    64.84583045
 H     47  45  11     1.091118373967   111.43598406   297.03660713
 H     47  45  11     1.092325084927   109.65979156   177.44384987
 H     47  45  11     1.089815260589   110.22808978    57.75751105

---------------------------
INTERNAL COORDINATES (A.U.)
---------------------------
 C      0   0   0     0.000000000000     0.00000000     0.00000000
 C      1   0   0     2.655621987819     0.00000000     0.00000000
 C      2   1   0     2.652440721321   117.52092899     0.00000000
 C      3   2   1     2.615189303411   122.42935954   356.67048772
 C      4   3   2     2.622958844922   119.47884096     0.98708204
 C      5   4   3     2.613474422248   119.17736913     1.40673808
 H      3   2   1     2.048879248483   118.73200555   176.96316004
 H      4   3   2     2.047015143242   120.12049462   180.55883685
 H      5   4   3     2.046619151603   120.64209922   179.96120095
 H      6   5   4     2.045420562401   119.77267361   177.26272348
 N      1   2   3     2.696358337656   121.40745884   184.17510563
 B      2   1   3     3.003577200482   122.65191796   179.31852946
 H     12   2   1     8.040194768345   132.93468178   236.78440043
 H     13  12   2     3.346622705853   109.22544358   315.75051947
 H     13  12   2     3.338451524011    53.28934611   338.96105288
 C     14  13  12     5.242096561835   120.73291590   332.70175299
 H     16  14  13     2.063629767012    71.63352540   220.71443454
 H     16  14  13     2.060463212359   168.70195722   129.91856541
 H     16  14  13     2.056088413275    62.10317366    96.54585167
 C     16  14  13     4.722026288643   104.98787590   311.21425159
 H     20  16  14     2.060230263084    90.68174202   169.97221442
 H     20  16  14     2.061149132848    91.09087915   278.51766313
 H     20  16  14     2.061994992241   145.41041351    45.09675907
 C     12   2   1     3.495612098632   111.58832037   115.17248835
 C     24  12   2     2.637307027806   118.63667882   356.56775060
 C     25  24  12     2.639204737200   114.50671472   226.65442007
 H     12   2   1     2.241591949200   123.02012352   355.37827243
 H     12   2   1     2.333706868103   110.02414776   226.32008634
 C     13  12   2     4.041816516288    68.12065206   262.06164477
 C     16  14  13     2.864841592905    80.52434358   336.18163100
 O     29  13  12     2.733345149476    90.65433967   322.43324770
 O     30  16  14     2.733284464291   108.70940522   108.36050841
 B     31  29  13     2.627277519263   105.68208843   112.62848536
 C     29  13  12     2.864085001334    95.67918690   213.84818279
 H     34  29  13     2.060184247363   109.51906348    24.93757272
 H     34  29  13     2.056100069767   111.33755044   144.68408623
 H     34  29  13     2.063416774281   110.48664610   265.86114036
 C     13  12   2     2.060056638045    74.69022171   306.49167665
 H     25  24  12     2.042431190269   121.48584353    46.16120107
 C     26  25  24     2.605885015788   111.27073568   359.54404924
 H     26  25  24     2.039870393480   124.86692193   179.28416965
 H     40  26  25     2.040417010261   126.57026928   179.57697128
 S     40  26  25     3.177319712589   112.95929268   359.85635718
 C     11   1   2     2.800721325003   118.70494799    93.56253386
 C     11   1   2     2.781549966080   118.22988494   257.57709034
 C     45  11   1     2.891212840679   107.47636086   160.79992479
 C     45  11   1     2.889723736526   109.32047032    44.17123116
 C     45  11   1     2.912679211948   114.58665736   284.01583295
 C     46  45  11     2.894439845385   113.42462933    60.24919691
 H     46  45  11     2.065287796171   106.91242773   298.65231980
 H     46  45  11     2.065145690745   108.89788695   183.60991062
 C     49  46  45     2.893569936915   112.10032217   332.32179607
 H     49  46  45     2.063750375159   109.08149714   209.93869719
 H     49  46  45     2.064192647664   110.26378242    93.83191755
 C     44  11   1     2.894350135095   111.72227821    25.92777504
 C     44  11   1     2.905019976117   111.40454570   266.04187410
 H     52  49  46     2.064581609560   110.17028659   208.48223819
 H     52  49  46     2.062798396548   110.19310247    91.80142971
 H     55  44  11     2.060938928933   111.52154093    60.81142921
 H     55  44  11     2.060558217638   111.78535275   299.46762827
 H     55  44  11     2.063105378533   108.86375274   180.17643897
 H     56  44  11     2.066153045047   110.13370741   182.42230072
 H     56  44  11     2.060419937862   110.48855668    63.06506802
 H     56  44  11     2.059046009413   111.81727898   303.15052931
 H     48  45  11     2.057311666177   112.76676122   303.63635985
 H     48  45  11     2.065589407399   109.77069961   183.22235323
 H     48  45  11     2.061178653670   110.45011900    64.84583045
 H     47  45  11     2.061914906487   111.43598406   297.03660713
 H     47  45  11     2.064195259724   109.65979156   177.44384987
 H     47  45  11     2.059452379082   110.22808978    57.75751105

Calling /Users/jacobmolinnielsen/Library/orca-external-tools/umaclient.sh input_EXT.extinp.tmp -b 127.0.0.1:59954  ... 

Total time:   2.686 seconds

External program completed successfully in 2.718 sec

-------------------------------------------------   --------------------
FINAL SINGLE POINT ENERGY (From external program)     -1629.231342772000
-------------------------------------------------   --------------------


------------------
CARTESIAN GRADIENT
------------------

   1   C   :    0.000012614    0.000042270    0.000019031
   2   C   :   -0.000015835   -0.000029652   -0.000014067
   3   C   :    0.000013891    0.000047866    0.000020034
   4   C   :   -0.000017598   -0.000048193   -0.000020797
   5   C   :    0.000014941    0.000038696    0.000016038
   6   C   :   -0.000011747   -0.000042853   -0.000019599
   7   H   :   -0.000021294   -0.000012994   -0.000003704
   8   H   :   -0.000008401    0.000009748    0.000005431
   9   H   :   -0.000003540   -0.000018135   -0.000007053
  10   H   :    0.000019427    0.000011084    0.000005479
  11   N   :    0.000015147   -0.000010145   -0.000003329
  12   B   :   -0.000000537    0.000020057    0.000006302
  13   H   :   -0.000005709   -0.000002472    0.000000253
  14   H   :   -0.000005392   -0.000007399    0.000008616
  15   H   :   -0.000017865   -0.000015001   -0.000009715
  16   C   :   -0.000013348    0.000019283   -0.000003369
  17   H   :    0.000006929   -0.000002586    0.000000225
  18   H   :    0.000014617   -0.000016506    0.000001895
  19   H   :   -0.000006701   -0.000000727   -0.000003575
  20   C   :    0.000004772    0.000037889    0.000005426
  21   H   :    0.000011536   -0.000023052    0.000000958
  22   H   :   -0.000007495   -0.000014854   -0.000000698
  23   H   :   -0.000006569   -0.000001095    0.000000274
  24   C   :   -0.000005345    0.000022320   -0.000016178
  25   C   :    0.000002803   -0.000012489    0.000006640
  26   C   :   -0.000000168    0.000004887   -0.000003236
  27   H   :    0.000003103   -0.000006320   -0.000003176
  28   H   :    0.000000306   -0.000002803    0.000001235
  29   C   :   -0.000017008   -0.000007792    0.000015411
  30   C   :   -0.000004714   -0.000011092   -0.000000473
  31   O   :    0.000015848    0.000029874   -0.000000951
  32   O   :   -0.000005930    0.000007649    0.000007366
  33   B   :    0.000004069   -0.000033343   -0.000011572
  34   C   :    0.000029743    0.000021023   -0.000041864
  35   H   :   -0.000009552    0.000002093    0.000001104
  36   H   :    0.000006279   -0.000005545    0.000028949
  37   H   :   -0.000020692   -0.000007306    0.000017043
  38   C   :    0.000021409    0.000028915   -0.000013635
  39   H   :    0.000010672   -0.000009026   -0.000008994
  40   C   :   -0.000001750    0.000000162    0.000006580
  41   H   :    0.000004822   -0.000019031    0.000012644
  42   H   :   -0.000008815    0.000000669    0.000008540
  43   S   :   -0.000006415    0.000014805   -0.000005603
  44   C   :   -0.000030497   -0.000004590    0.000005870
  45   C   :    0.000008942   -0.000001670    0.000002153
  46   C   :   -0.000002446   -0.000000177   -0.000007025
  47   C   :    0.000004369   -0.000007708   -0.000004354
  48   C   :   -0.000001380   -0.000008843   -0.000016683
  49   C   :   -0.000001308   -0.000052774    0.000011415
  50   H   :    0.000010606    0.000011904    0.000002949
  51   H   :   -0.000009100   -0.000001928    0.000013326
  52   C   :    0.000057828    0.000016670    0.000005630
  53   H   :   -0.000011229    0.000049178    0.000001231
  54   H   :   -0.000000615    0.000009314   -0.000001723
  55   C   :    0.000064096   -0.000002354   -0.000021092
  56   C   :    0.000016419    0.000010450   -0.000002749
  57   H   :   -0.000013799    0.000011747   -0.000015841
  58   H   :   -0.000015722   -0.000029819   -0.000007827
  59   H   :   -0.000005836   -0.000000487    0.000000879
  60   H   :   -0.000051521   -0.000000013    0.000011150
  61   H   :   -0.000006376    0.000000896    0.000001588
  62   H   :   -0.000001913   -0.000000053   -0.000000919
  63   H   :   -0.000005366   -0.000000391    0.000001694
  64   H   :   -0.000000531   -0.000000998    0.000002127
  65   H   :   -0.000002324   -0.000000367    0.000011775
  66   H   :   -0.000007609   -0.000000785    0.000006064
  67   H   :    0.000008660    0.000000925   -0.000000332
  68   H   :   -0.000000525    0.000006174    0.000001691
  69   H   :   -0.000003724   -0.000000376    0.000002208
  70   H   :    0.000010392   -0.000002801   -0.000007105

Difference to translation invariance:
           :   -0.0000000005    0.0000000033   -0.0000000121

Difference to rotation invariance:
           :   -0.0000000162   -0.0000000220   -0.0000000100

Norm of the Cartesian gradient     ...    0.0002333492
RMS gradient                       ...    0.0000161026
MAX gradient                       ...    0.0000640956



--------------------------------------------------------------------------------
                   Intrinsic Reaction Coordinate Calculation
--------------------------------------------------------------------------------

System:
Nr. of atoms                        .... 70
Algorithm: SD (steepest descent step) plus correction
Settings:
Max. no of cycles        MaxIter    .... 20
Direction                           .... Forward and backward
Initial displacement Hessian type   .... Compute numerically
Following Hessian mode              .... 0
Initial displacement type           .... Energy
  Initial displacement energy change.... 2.000 mEh
Coordinate system following type    .... Cartesian
Length of steepest descent step     .... 0.150 bohr
Do parabolic fit 
  if SD step is uphill              .... YES
Do Correction to SD step            .... YES
Scaling for length of correction
  compared to SD step               .... 0.333
Do parabolic fit to SD correction   .... YES
Only interpolate for parabolic fit  .... YES
Do update to length of
  SD step and correction            .... YES
Convergence Tolerances:
  Max. Gradient            TolMAXG  ....  2.0000e-03 Eh/bohr
  RMS Gradient             TolRMSG  ....  5.0000e-04 Eh/bohr
Storing full IRC trajectory in      .... input_IRC_Full_trj.xyz
Storing forward trajectory in       .... input_IRC_F_trj.xyz
Storing backward trajectory in      .... input_IRC_B_trj.xyz



----------------------------------------------------------------------------
                           ORCA NUMERICAL FREQUENCIES
                              (10-process run)
----------------------------------------------------------------------------

Number of atoms                ... 70
Central differences            ... NOT used
Translation invariance         ... used
Number of displacements        ... 210 - 3
Numerical increment            ... 5.000e-03 bohr
IR-spectrum generation         ... on
Raman-spectrum generation      ... off
Surface Crossing Hessian       ... off

The output will be reduced. Please look at the following files:
SCF program output             ... >input.lastscf
Integral program output        ... >input.lastint
Gradient program output        ... >input.lastgrad
Dipole moment program output   ... >input.lastmom

List of participating nodes    ...  input.hostnames

	<< Calculating gradient on displaced geometry   5 (of 208) >>
	<< Calculating gradient on displaced geometry   3 (of 208) >>
	<< Calculating gradient on displaced geometry   4 (of 208) >>
	<< Calculating gradient on displaced geometry   2 (of 208) >>
	<< Calculating gradient on displaced geometry   6 (of 208) >>
	<< Calculating gradient on displaced geometry  10 (of 208) >>
	<< Calculating gradient on displaced geometry   8 (of 208) >>
	<< Calculating gradient on displaced geometry   9 (of 208) >>
	<< Calculating gradient on displaced geometry   1 (of 208) >>
	<< Calculating gradient on displaced geometry   7 (of 208) >>
	<< Calculating gradient on displaced geometry  11 (of 208) >>
	<< Calculating gradient on displaced geometry  12 (of 208) >>
	<< Calculating gradient on displaced geometry  13 (of 208) >>
	<< Calculating gradient on displaced geometry  14 (of 208) >>
	<< Calculating gradient on displaced geometry  15 (of 208) >>
	<< Calculating gradient on displaced geometry  16 (of 208) >>
	<< Calculating gradient on displaced geometry  17 (of 208) >>
	<< Calculating gradient on displaced geometry  18 (of 208) >>
	<< Calculating gradient on displaced geometry  19 (of 208) >>
	<< Calculating gradient on displaced geometry  20 (of 208) >>
	<< Calculating gradient on displaced geometry  21 (of 208) >>
	<< Calculating gradient on displaced geometry  22 (of 208) >>
	<< Calculating gradient on displaced geometry  23 (of 208) >>
	<< Calculating gradient on displaced geometry  24 (of 208) >>
	<< Calculating gradient on displaced geometry  25 (of 208) >>
	<< Calculating gradient on displaced geometry  26 (of 208) >>
	<< Calculating gradient on displaced geometry  27 (of 208) >>
	<< Calculating gradient on displaced geometry  28 (of 208) >>
	<< Calculating gradient on displaced geometry  29 (of 208) >>
	<< Calculating gradient on displaced geometry  30 (of 208) >>
	<< Calculating gradient on displaced geometry  31 (of 208) >>
	<< Calculating gradient on displaced geometry  32 (of 208) >>
	<< Calculating gradient on displaced geometry  33 (of 208) >>
	<< Calculating gradient on displaced geometry  34 (of 208) >>
	<< Calculating gradient on displaced geometry  35 (of 208) >>
	<< Calculating gradient on displaced geometry  36 (of 208) >>
	<< Calculating gradient on displaced geometry  37 (of 208) >>
	<< Calculating gradient on displaced geometry  38 (of 208) >>
	<< Calculating gradient on displaced geometry  39 (of 208) >>
	<< Calculating gradient on displaced geometry  40 (of 208) >>
	<< Calculating gradient on displaced geometry  41 (of 208) >>
	<< Calculating gradient on displaced geometry  42 (of 208) >>
	<< Calculating gradient on displaced geometry  43 (of 208) >>
	<< Calculating gradient on displaced geometry  44 (of 208) >>
	<< Calculating gradient on displaced geometry  45 (of 208) >>
	<< Calculating gradient on displaced geometry  46 (of 208) >>
	<< Calculating gradient on displaced geometry  47 (of 208) >>
	<< Calculating gradient on displaced geometry  48 (of 208) >>
	<< Calculating gradient on displaced geometry  49 (of 208) >>
	<< Calculating gradient on displaced geometry  50 (of 208) >>
	<< Calculating gradient on displaced geometry  51 (of 208) >>
	<< Calculating gradient on displaced geometry  52 (of 208) >>
	<< Calculating gradient on displaced geometry  53 (of 208) >>
	<< Calculating gradient on displaced geometry  54 (of 208) >>
	<< Calculating gradient on displaced geometry  55 (of 208) >>
	<< Calculating gradient on displaced geometry  56 (of 208) >>
	<< Calculating gradient on displaced geometry  57 (of 208) >>
	<< Calculating gradient on displaced geometry  58 (of 208) >>
	<< Calculating gradient on displaced geometry  59 (of 208) >>
	<< Calculating gradient on displaced geometry  60 (of 208) >>
	<< Calculating gradient on displaced geometry  61 (of 208) >>
	<< Calculating gradient on displaced geometry  62 (of 208) >>
	<< Calculating gradient on displaced geometry  63 (of 208) >>
	<< Calculating gradient on displaced geometry  64 (of 208) >>
	<< Calculating gradient on displaced geometry  65 (of 208) >>
	<< Calculating gradient on displaced geometry  66 (of 208) >>
	<< Calculating gradient on displaced geometry  67 (of 208) >>
	<< Calculating gradient on displaced geometry  68 (of 208) >>
	<< Calculating gradient on displaced geometry  69 (of 208) >>
	<< Calculating gradient on displaced geometry  70 (of 208) >>
	<< Calculating gradient on displaced geometry  71 (of 208) >>
	<< Calculating gradient on displaced geometry  72 (of 208) >>
	<< Calculating gradient on displaced geometry  73 (of 208) >>
	<< Calculating gradient on displaced geometry  74 (of 208) >>
	<< Calculating gradient on displaced geometry  75 (of 208) >>
	<< Calculating gradient on displaced geometry  76 (of 208) >>
	<< Calculating gradient on displaced geometry  77 (of 208) >>
	<< Calculating gradient on displaced geometry  78 (of 208) >>
	<< Calculating gradient on displaced geometry  79 (of 208) >>
	<< Calculating gradient on displaced geometry  80 (of 208) >>
	<< Calculating gradient on displaced geometry  81 (of 208) >>
	<< Calculating gradient on displaced geometry  82 (of 208) >>
	<< Calculating gradient on displaced geometry  83 (of 208) >>
	<< Calculating gradient on displaced geometry  84 (of 208) >>
	<< Calculating gradient on displaced geometry  85 (of 208) >>
	<< Calculating gradient on displaced geometry  86 (of 208) >>
	<< Calculating gradient on displaced geometry  87 (of 208) >>
	<< Calculating gradient on displaced geometry  88 (of 208) >>
	<< Calculating gradient on displaced geometry  89 (of 208) >>
	<< Calculating gradient on displaced geometry  90 (of 208) >>
	<< Calculating gradient on displaced geometry  91 (of 208) >>
	<< Calculating gradient on displaced geometry  92 (of 208) >>
	<< Calculating gradient on displaced geometry  93 (of 208) >>
	<< Calculating gradient on displaced geometry  94 (of 208) >>
	<< Calculating gradient on displaced geometry  95 (of 208) >>
	<< Calculating gradient on displaced geometry  96 (of 208) >>
	<< Calculating gradient on displaced geometry  97 (of 208) >>
	<< Calculating gradient on displaced geometry  98 (of 208) >>
	<< Calculating gradient on displaced geometry  99 (of 208) >>
	<< Calculating gradient on displaced geometry 100 (of 208) >>
	<< Calculating gradient on displaced geometry 101 (of 208) >>
	<< Calculating gradient on displaced geometry 102 (of 208) >>
	<< Calculating gradient on displaced geometry 103 (of 208) >>
	<< Calculating gradient on displaced geometry 104 (of 208) >>
	<< Calculating gradient on displaced geometry 105 (of 208) >>
	<< Calculating gradient on displaced geometry 106 (of 208) >>
	<< Calculating gradient on displaced geometry 107 (of 208) >>
	<< Calculating gradient on displaced geometry 108 (of 208) >>
	<< Calculating gradient on displaced geometry 109 (of 208) >>
	<< Calculating gradient on displaced geometry 110 (of 208) >>
	<< Calculating gradient on displaced geometry 111 (of 208) >>
	<< Calculating gradient on displaced geometry 112 (of 208) >>
	<< Calculating gradient on displaced geometry 113 (of 208) >>
	<< Calculating gradient on displaced geometry 114 (of 208) >>
	<< Calculating gradient on displaced geometry 115 (of 208) >>
	<< Calculating gradient on displaced geometry 116 (of 208) >>
	<< Calculating gradient on displaced geometry 117 (of 208) >>
	<< Calculating gradient on displaced geometry 118 (of 208) >>
	<< Calculating gradient on displaced geometry 119 (of 208) >>
	<< Calculating gradient on displaced geometry 120 (of 208) >>
	<< Calculating gradient on displaced geometry 121 (of 208) >>
	<< Calculating gradient on displaced geometry 122 (of 208) >>
	<< Calculating gradient on displaced geometry 123 (of 208) >>
	<< Calculating gradient on displaced geometry 124 (of 208) >>
	<< Calculating gradient on displaced geometry 125 (of 208) >>
	<< Calculating gradient on displaced geometry 126 (of 208) >>
	<< Calculating gradient on displaced geometry 127 (of 208) >>
	<< Calculating gradient on displaced geometry 128 (of 208) >>
	<< Calculating gradient on displaced geometry 129 (of 208) >>
	<< Calculating gradient on displaced geometry 130 (of 208) >>
	<< Calculating gradient on displaced geometry 131 (of 208) >>
	<< Calculating gradient on displaced geometry 132 (of 208) >>
	<< Calculating gradient on displaced geometry 133 (of 208) >>
	<< Calculating gradient on displaced geometry 134 (of 208) >>
	<< Calculating gradient on displaced geometry 135 (of 208) >>
	<< Calculating gradient on displaced geometry 136 (of 208) >>
	<< Calculating gradient on displaced geometry 137 (of 208) >>
	<< Calculating gradient on displaced geometry 138 (of 208) >>
	<< Calculating gradient on displaced geometry 139 (of 208) >>
	<< Calculating gradient on displaced geometry 140 (of 208) >>
	<< Calculating gradient on displaced geometry 141 (of 208) >>
	<< Calculating gradient on displaced geometry 142 (of 208) >>
	<< Calculating gradient on displaced geometry 143 (of 208) >>
	<< Calculating gradient on displaced geometry 144 (of 208) >>
	<< Calculating gradient on displaced geometry 145 (of 208) >>
	<< Calculating gradient on displaced geometry 146 (of 208) >>
	<< Calculating gradient on displaced geometry 147 (of 208) >>
	<< Calculating gradient on displaced geometry 148 (of 208) >>
	<< Calculating gradient on displaced geometry 149 (of 208) >>
	<< Calculating gradient on displaced geometry 150 (of 208) >>
	<< Calculating gradient on displaced geometry 151 (of 208) >>
	<< Calculating gradient on displaced geometry 152 (of 208) >>
	<< Calculating gradient on displaced geometry 153 (of 208) >>
	<< Calculating gradient on displaced geometry 154 (of 208) >>
	<< Calculating gradient on displaced geometry 155 (of 208) >>
	<< Calculating gradient on displaced geometry 156 (of 208) >>
	<< Calculating gradient on displaced geometry 157 (of 208) >>
	<< Calculating gradient on displaced geometry 158 (of 208) >>
	<< Calculating gradient on displaced geometry 159 (of 208) >>
	<< Calculating gradient on displaced geometry 160 (of 208) >>
	<< Calculating gradient on displaced geometry 161 (of 208) >>
	<< Calculating gradient on displaced geometry 162 (of 208) >>
	<< Calculating gradient on displaced geometry 163 (of 208) >>
	<< Calculating gradient on displaced geometry 164 (of 208) >>
	<< Calculating gradient on displaced geometry 165 (of 208) >>
	<< Calculating gradient on displaced geometry 166 (of 208) >>
	<< Calculating gradient on displaced geometry 167 (of 208) >>
	<< Calculating gradient on displaced geometry 168 (of 208) >>
	<< Calculating gradient on displaced geometry 169 (of 208) >>
	<< Calculating gradient on displaced geometry 170 (of 208) >>
	<< Calculating gradient on displaced geometry 171 (of 208) >>
	<< Calculating gradient on displaced geometry 172 (of 208) >>
	<< Calculating gradient on displaced geometry 173 (of 208) >>
	<< Calculating gradient on displaced geometry 174 (of 208) >>
	<< Calculating gradient on displaced geometry 175 (of 208) >>
	<< Calculating gradient on displaced geometry 176 (of 208) >>
	<< Calculating gradient on displaced geometry 177 (of 208) >>
	<< Calculating gradient on displaced geometry 178 (of 208) >>
	<< Calculating gradient on displaced geometry 179 (of 208) >>
	<< Calculating gradient on displaced geometry 180 (of 208) >>
	<< Calculating gradient on displaced geometry 181 (of 208) >>
	<< Calculating gradient on displaced geometry 182 (of 208) >>
	<< Calculating gradient on displaced geometry 183 (of 208) >>
	<< Calculating gradient on displaced geometry 184 (of 208) >>
	<< Calculating gradient on displaced geometry 185 (of 208) >>
	<< Calculating gradient on displaced geometry 186 (of 208) >>
	<< Calculating gradient on displaced geometry 187 (of 208) >>
	<< Calculating gradient on displaced geometry 188 (of 208) >>
	<< Calculating gradient on displaced geometry 189 (of 208) >>
	<< Calculating gradient on displaced geometry 190 (of 208) >>
	<< Calculating gradient on displaced geometry 191 (of 208) >>
	<< Calculating gradient on displaced geometry 192 (of 208) >>
	<< Calculating gradient on displaced geometry 193 (of 208) >>
	<< Calculating gradient on displaced geometry 194 (of 208) >>
	<< Calculating gradient on displaced geometry 195 (of 208) >>
	<< Calculating gradient on displaced geometry 196 (of 208) >>
	<< Calculating gradient on displaced geometry 197 (of 208) >>
	<< Calculating gradient on displaced geometry 198 (of 208) >>
	<< Calculating gradient on displaced geometry 199 (of 208) >>
	<< Calculating gradient on displaced geometry 200 (of 208) >>
	<< Calculating gradient on displaced geometry 201 (of 208) >>
	<< Calculating gradient on displaced geometry 202 (of 208) >>
	<< Calculating gradient on displaced geometry 203 (of 208) >>
	<< Calculating gradient on displaced geometry 204 (of 208) >>
	<< Calculating gradient on displaced geometry 205 (of 208) >>
	<< Calculating gradient on displaced geometry 206 (of 208) >>
	<< Calculating gradient on displaced geometry 207 (of 208) >>
	<< Calculating gradient on displaced geometry 208 (of 208) >>

The first frequency considered to be a vibration is 7
The total number of vibrations considered is 203


--------------------------
THERMOCHEMISTRY AT 298.15K
--------------------------

Temperature         ...   298.15 K
Pressure            ...     1.00 atm
Total Mass          ...   439.27 AMU
Quasi RRHO          ...     True
Cut-Off Frequency   ...     1.00 cm^-1

Throughout the following assumptions are being made:
  (1) The electronic state is orbitally nondegenerate
  (2) There are no thermally accessible electronically excited states
  (3) Hindered rotations indicated by low frequency modes are not
      treated as such but are treated as vibrations and this may
      cause some error
  (4) All equations used are the standard statistical mechanics
      equations for an ideal gas
  (5) All vibrations are strictly harmonic

freq.      16.68  E(vib)   ...       0.57 
freq.      24.70  E(vib)   ...       0.56 
freq.      34.96  E(vib)   ...       0.54 
freq.      41.58  E(vib)   ...       0.54 
freq.      62.71  E(vib)   ...       0.51 
freq.      76.11  E(vib)   ...       0.49 
freq.      81.54  E(vib)   ...       0.48 
freq.      86.63  E(vib)   ...       0.48 
freq.      96.78  E(vib)   ...       0.46 
freq.     108.22  E(vib)   ...       0.45 
freq.     131.84  E(vib)   ...       0.42 
freq.     138.07  E(vib)   ...       0.42 
freq.     151.83  E(vib)   ...       0.40 
freq.     165.62  E(vib)   ...       0.39 
freq.     182.66  E(vib)   ...       0.37 
freq.     188.39  E(vib)   ...       0.36 
freq.     211.00  E(vib)   ...       0.34 
freq.     218.87  E(vib)   ...       0.33 
freq.     232.39  E(vib)   ...       0.32 
freq.     239.20  E(vib)   ...       0.31 
freq.     247.17  E(vib)   ...       0.31 
freq.     254.31  E(vib)   ...       0.30 
freq.     269.53  E(vib)   ...       0.29 
freq.     282.29  E(vib)   ...       0.28 
freq.     292.09  E(vib)   ...       0.27 
freq.     296.07  E(vib)   ...       0.27 
freq.     298.88  E(vib)   ...       0.26 
freq.     305.86  E(vib)   ...       0.26 
freq.     307.49  E(vib)   ...       0.26 
freq.     319.26  E(vib)   ...       0.25 
freq.     322.20  E(vib)   ...       0.25 
freq.     326.97  E(vib)   ...       0.24 
freq.     330.44  E(vib)   ...       0.24 
freq.     350.26  E(vib)   ...       0.23 
freq.     351.57  E(vib)   ...       0.23 
freq.     366.47  E(vib)   ...       0.22 
freq.     371.86  E(vib)   ...       0.21 
freq.     382.66  E(vib)   ...       0.20 
freq.     391.63  E(vib)   ...       0.20 
freq.     396.84  E(vib)   ...       0.20 
freq.     398.46  E(vib)   ...       0.20 
freq.     406.21  E(vib)   ...       0.19 
freq.     450.49  E(vib)   ...       0.17 
freq.     461.15  E(vib)   ...       0.16 
freq.     479.36  E(vib)   ...       0.15 
freq.     490.16  E(vib)   ...       0.15 
freq.     497.78  E(vib)   ...       0.14 
freq.     505.23  E(vib)   ...       0.14 
freq.     522.75  E(vib)   ...       0.13 
freq.     528.58  E(vib)   ...       0.13 
freq.     539.48  E(vib)   ...       0.12 
freq.     570.26  E(vib)   ...       0.11 
freq.     581.21  E(vib)   ...       0.11 
freq.     583.22  E(vib)   ...       0.11 
freq.     590.55  E(vib)   ...       0.10 
freq.     603.61  E(vib)   ...       0.10 
freq.     624.30  E(vib)   ...       0.09 
freq.     656.72  E(vib)   ...       0.08 
freq.     685.67  E(vib)   ...       0.07 
freq.     691.71  E(vib)   ...       0.07 
freq.     736.09  E(vib)   ...       0.06 
freq.     747.58  E(vib)   ...       0.06 
freq.     765.73  E(vib)   ...       0.06 
freq.     773.84  E(vib)   ...       0.05 
freq.     777.21  E(vib)   ...       0.05 
freq.     786.83  E(vib)   ...       0.05 
freq.     794.43  E(vib)   ...       0.05 
freq.     806.85  E(vib)   ...       0.05 
freq.     827.42  E(vib)   ...       0.04 
freq.     848.36  E(vib)   ...       0.04 
freq.     867.08  E(vib)   ...       0.04 
freq.     883.21  E(vib)   ...       0.04 
freq.     886.82  E(vib)   ...       0.04 
freq.     901.69  E(vib)   ...       0.03 
freq.     909.39  E(vib)   ...       0.03 
freq.     913.83  E(vib)   ...       0.03 
freq.     918.47  E(vib)   ...       0.03 
freq.     927.76  E(vib)   ...       0.03 
freq.     931.20  E(vib)   ...       0.03 
freq.     937.45  E(vib)   ...       0.03 
freq.     940.90  E(vib)   ...       0.03 
freq.     945.33  E(vib)   ...       0.03 
freq.     961.01  E(vib)   ...       0.03 
freq.     973.01  E(vib)   ...       0.03 
freq.     977.51  E(vib)   ...       0.03 
freq.     982.53  E(vib)   ...       0.02 
freq.     987.22  E(vib)   ...       0.02 
freq.     989.96  E(vib)   ...       0.02 
freq.     999.59  E(vib)   ...       0.02 
freq.    1003.28  E(vib)   ...       0.02 
freq.    1006.91  E(vib)   ...       0.02 
freq.    1012.50  E(vib)   ...       0.02 
freq.    1015.74  E(vib)   ...       0.02 
freq.    1025.86  E(vib)   ...       0.02 
freq.    1031.26  E(vib)   ...       0.02 
freq.    1041.72  E(vib)   ...       0.02 
freq.    1081.58  E(vib)   ...       0.02 
freq.    1088.88  E(vib)   ...       0.02 
freq.    1091.03  E(vib)   ...       0.02 
freq.    1098.90  E(vib)   ...       0.02 
freq.    1108.04  E(vib)   ...       0.02 
freq.    1123.30  E(vib)   ...       0.01 
freq.    1128.35  E(vib)   ...       0.01 
freq.    1140.34  E(vib)   ...       0.01 
freq.    1149.56  E(vib)   ...       0.01 
freq.    1168.42  E(vib)   ...       0.01 
freq.    1174.59  E(vib)   ...       0.01 
freq.    1179.42  E(vib)   ...       0.01 
freq.    1194.42  E(vib)   ...       0.01 
freq.    1199.77  E(vib)   ...       0.01 
freq.    1201.97  E(vib)   ...       0.01 
freq.    1215.86  E(vib)   ...       0.01 
freq.    1220.54  E(vib)   ...       0.01 
freq.    1242.70  E(vib)   ...       0.01 
freq.    1244.64  E(vib)   ...       0.01 
freq.    1251.64  E(vib)   ...       0.01 
freq.    1253.57  E(vib)   ...       0.01 
freq.    1268.57  E(vib)   ...       0.01 
freq.    1275.91  E(vib)   ...       0.01 
freq.    1285.19  E(vib)   ...       0.01 
freq.    1285.96  E(vib)   ...       0.01 
freq.    1293.79  E(vib)   ...       0.01 
freq.    1302.24  E(vib)   ...       0.01 
freq.    1303.52  E(vib)   ...       0.01 
freq.    1313.49  E(vib)   ...       0.01 
freq.    1320.67  E(vib)   ...       0.01 
freq.    1334.09  E(vib)   ...       0.01 
freq.    1354.28  E(vib)   ...       0.01 
freq.    1356.52  E(vib)   ...       0.01 
freq.    1371.00  E(vib)   ...       0.01 
freq.    1377.08  E(vib)   ...       0.01 
freq.    1388.99  E(vib)   ...       0.00 
freq.    1392.98  E(vib)   ...       0.00 
freq.    1395.71  E(vib)   ...       0.00 
freq.    1398.64  E(vib)   ...       0.00 
freq.    1405.11  E(vib)   ...       0.00 
freq.    1407.82  E(vib)   ...       0.00 
freq.    1409.38  E(vib)   ...       0.00 
freq.    1414.95  E(vib)   ...       0.00 
freq.    1446.47  E(vib)   ...       0.00 
freq.    1459.52  E(vib)   ...       0.00 
freq.    1461.70  E(vib)   ...       0.00 
freq.    1463.75  E(vib)   ...       0.00 
freq.    1467.37  E(vib)   ...       0.00 
freq.    1469.73  E(vib)   ...       0.00 
freq.    1473.38  E(vib)   ...       0.00 
freq.    1474.14  E(vib)   ...       0.00 
freq.    1474.52  E(vib)   ...       0.00 
freq.    1476.32  E(vib)   ...       0.00 
freq.    1478.36  E(vib)   ...       0.00 
freq.    1483.95  E(vib)   ...       0.00 
freq.    1490.43  E(vib)   ...       0.00 
freq.    1491.77  E(vib)   ...       0.00 
freq.    1492.02  E(vib)   ...       0.00 
freq.    1495.81  E(vib)   ...       0.00 
freq.    1496.27  E(vib)   ...       0.00 
freq.    1499.39  E(vib)   ...       0.00 
freq.    1500.26  E(vib)   ...       0.00 
freq.    1505.79  E(vib)   ...       0.00 
freq.    1511.29  E(vib)   ...       0.00 
freq.    1527.50  E(vib)   ...       0.00 
freq.    1529.13  E(vib)   ...       0.00 
freq.    1632.55  E(vib)   ...       0.00 
freq.    1666.50  E(vib)   ...       0.00 
freq.    2396.17  E(vib)   ...       0.00 
freq.    2665.80  E(vib)   ...       0.00 
freq.    3036.90  E(vib)   ...       0.00 
freq.    3039.01  E(vib)   ...       0.00 
freq.    3041.22  E(vib)   ...       0.00 
freq.    3047.65  E(vib)   ...       0.00 
freq.    3050.21  E(vib)   ...       0.00 
freq.    3051.91  E(vib)   ...       0.00 
freq.    3052.67  E(vib)   ...       0.00 
freq.    3054.45  E(vib)   ...       0.00 
freq.    3057.67  E(vib)   ...       0.00 
freq.    3061.30  E(vib)   ...       0.00 
freq.    3065.24  E(vib)   ...       0.00 
freq.    3067.72  E(vib)   ...       0.00 
freq.    3084.50  E(vib)   ...       0.00 
freq.    3099.82  E(vib)   ...       0.00 
freq.    3105.31  E(vib)   ...       0.00 
freq.    3108.22  E(vib)   ...       0.00 
freq.    3114.68  E(vib)   ...       0.00 
freq.    3116.22  E(vib)   ...       0.00 
freq.    3120.11  E(vib)   ...       0.00 
freq.    3123.57  E(vib)   ...       0.00 
freq.    3125.09  E(vib)   ...       0.00 
freq.    3125.36  E(vib)   ...       0.00 
freq.    3129.38  E(vib)   ...       0.00 
freq.    3130.61  E(vib)   ...       0.00 
freq.    3134.96  E(vib)   ...       0.00 
freq.    3136.38  E(vib)   ...       0.00 
freq.    3141.09  E(vib)   ...       0.00 
freq.    3149.02  E(vib)   ...       0.00 
freq.    3150.26  E(vib)   ...       0.00 
freq.    3157.90  E(vib)   ...       0.00 
freq.    3166.24  E(vib)   ...       0.00 
freq.    3183.79  E(vib)   ...       0.00 
freq.    3198.18  E(vib)   ...       0.00 
freq.    3215.66  E(vib)   ...       0.00 
freq.    3231.93  E(vib)   ...       0.00 
freq.    3239.98  E(vib)   ...       0.00 
freq.    3256.57  E(vib)   ...       0.00 

------------
INNER ENERGY
------------

The inner energy is: U= E(el) + E(ZPE) + E(vib) + E(rot) + E(trans)
    E(el)   - is the total energy from the electronic structure calculation
              = E(kin-el) + E(nuc-el) + E(el-el) + E(nuc-nuc)
    E(ZPE)  - the the zero temperature vibrational energy from the frequency calculation
    E(vib)  - the the finite temperature correction to E(ZPE) due to population
              of excited vibrational states
    E(rot)  - is the rotational thermal energy
    E(trans)- is the translational thermal energy

Summary of contributions to the inner energy U:
Electronic energy                ...  -1629.23134277 Eh
Zero point energy                ...      0.60319063 Eh     378.51 kcal/mol
Thermal vibrational correction   ...      0.02855797 Eh      17.92 kcal/mol
Thermal rotational correction    ...      0.00141627 Eh       0.89 kcal/mol
Thermal translational correction ...      0.00141627 Eh       0.89 kcal/mol
-----------------------------------------------------------------------
Total thermal energy                  -1628.59676162 Eh


Summary of corrections to the electronic energy:
(perhaps to be used in another calculation)
Total thermal correction                  0.03139052 Eh      19.70 kcal/mol
Non-thermal (ZPE) correction              0.60319063 Eh     378.51 kcal/mol
-----------------------------------------------------------------------
Total correction                          0.63458115 Eh     398.20 kcal/mol


--------
ENTHALPY
--------

The enthalpy is H = U + kB*T
                kB is Boltzmann's constant
Total thermal energy              ...  -1628.59676162 Eh 
Thermal Enthalpy correction       ...      0.00094421 Eh       0.59 kcal/mol
-----------------------------------------------------------------------
Total Enthalpy                    ...  -1628.59581741 Eh


WARNING (ORCA/SYM): The number of Z matrix atoms does not agree with
the number of centers in the basis set. The point group will therefore
be determined without considering basis set information.


Note: Only C1 symmetry has been detected, increase convergence thresholds 
      if your molecule has a higher symmetry. Symmetry factor of 1.0 is   
      used for the rotational entropy correction. 
 

Note: Rotational entropy computed according to Herzberg 
Infrared and Raman Spectra, Chapter V,1, Van Nostrand Reinhold, 1945 
Point Group:  C1, Symmetry Number:   1  
Rotational constants in cm-1:     0.007577     0.003199     0.003040 

Vibrational entropy computed according to the QRRHO of S. Grimme
Chem.Eur.J. 2012 18 9955 using a reference frequency of 100.0 cm-1


-------
ENTROPY
-------

The entropy contributions are T*S = T*(S(el)+S(vib)+S(rot)+S(trans))
     S(el)   - electronic entropy
     S(vib)  - vibrational entropy
     S(rot)  - rotational entropy
     S(trans)- translational entropy
The entropies will be listed as multiplied by the temperature to get
units of energy

Electronic entropy                ...      0.00000000 Eh      0.00 kcal/mol
Vibrational entropy               ...      0.04948690 Eh     31.05 kcal/mol
Rotational entropy                ...      0.01726406 Eh     10.83 kcal/mol
Translational entropy             ...      0.02096725 Eh     13.16 kcal/mol
-----------------------------------------------------------------------
Final entropy term                ...      0.08771821 Eh     55.04 kcal/mol

In case the symmetry of your molecule has not been determined correctly
or in case you have a reason to use a different symmetry number we print 
out the resulting rotational entropy values for sn=1,12:

 non-linear molecules -----------------------------------
|  sn= 1 | S(rot)=       0.01726406 Eh     10.83 kcal/mol|
|  sn= 2 | S(rot)=       0.01660960 Eh     10.42 kcal/mol|
|  sn= 3 | S(rot)=       0.01622677 Eh     10.18 kcal/mol|
|  sn= 4 | S(rot)=       0.01595515 Eh     10.01 kcal/mol|
|  sn= 5 | S(rot)=       0.01574446 Eh      9.88 kcal/mol|
|  sn= 6 | S(rot)=       0.01557231 Eh      9.77 kcal/mol|
|  sn= 7 | S(rot)=       0.01542677 Eh      9.68 kcal/mol|
|  sn= 8 | S(rot)=       0.01530069 Eh      9.60 kcal/mol|
|  sn= 9 | S(rot)=       0.01518948 Eh      9.53 kcal/mol|
|  sn=10 | S(rot)=       0.01509000 Eh      9.47 kcal/mol|
|  sn=11 | S(rot)=       0.01500001 Eh      9.41 kcal/mol|
|  sn=12 | S(rot)=       0.01491786 Eh      9.36 kcal/mol|
 linear molecules ---------------------------------------
|  Dinfh | S(rot)=       0.01079803 Eh      6.78 kcal/mol|
|  Cinfv | S(rot)=       0.01145249 Eh      7.19 kcal/mol|
 --------------------------------------------------------


-------------------
GIBBS FREE ENERGY
-------------------

The Gibbs free energy is G = H - T*S

Total enthalpy                    ...  -1628.59581741 Eh 
Total entropy correction          ...     -0.08771821 Eh    -55.04 kcal/mol
-----------------------------------------------------------------------
Final Gibbs free energy         ...  -1628.68353562 Eh

For completeness - the Gibbs free energy minus the electronic energy
G-E(el)                           ...      0.54780715 Eh    343.75 kcal/mol


Reading the hessian file           ...... done
Determining length of initial displacement:
  Requested energy change (quadratic behavior): 2.000 mEh
  Resulting scaling factor for initial displacement along normalized TS mode: 1.7484

         *************************************************************
         *                          FORWARD IRC                      *
         *************************************************************

Iteration    E(Eh)      dE(kcal/mol)  max(|G|)   RMS(G) 
Convergence thresholds                0.002000  0.000500            
    0     -1629.220344    6.901824    0.049265  0.006329
    1     -1629.228006    2.093889    0.013285  0.002180
    2     -1629.229963    0.866042    0.004622  0.000896
    3     -1629.230243    0.690038    0.003292  0.000697
    4     -1629.230401    0.591084    0.002570  0.000547
    5     -1629.230611    0.459230    0.002306  0.000393
    6     -1629.230794    0.344178    0.001999  0.000320

                      ***********************HURRAY********************
                      ***            THE IRC HAS CONVERGED          ***
                      *************************************************


         *************************************************************
         *                          BACKWARD IRC                     *
         *************************************************************

Iteration    E(Eh)      dE(kcal/mol)  max(|G|)   RMS(G) 
Convergence thresholds                0.002000  0.000500            
    0     -1629.231367   -0.015317    0.024255  0.003759
    1     -1629.233884   -1.594457    0.004295  0.000838
    2     -1629.234156   -1.765622    0.004207  0.000710
    3     -1629.234254   -1.826596    0.002651  0.000501
    4     -1629.234443   -1.945200    0.001925  0.000367

                      ***********************HURRAY********************
                      ***            THE IRC HAS CONVERGED          ***
                      *************************************************


---------------------------------------------------------------
                       IRC PATH SUMMARY              
---------------------------------------------------------------
All gradients are in Eh/Bohr.

Step        E(Eh)      dE(kcal/mol)  max(|G|)   RMS(G) 
   1     -1629.234443   -1.945200    0.001925  0.000367
   2     -1629.234254   -1.826596    0.002651  0.000501
   3     -1629.234156   -1.765622    0.004207  0.000710
   4     -1629.233884   -1.594457    0.004295  0.000838
   5     -1629.231367   -0.015317    0.024255  0.003759
   6     -1629.231343    0.000000    0.000064  0.000016 <= TS
   7     -1629.220344    6.901824    0.049265  0.006329
   8     -1629.228006    2.093889    0.013285  0.002180
   9     -1629.229963    0.866042    0.004622  0.000896
  10     -1629.230243    0.690038    0.003292  0.000697
  11     -1629.230401    0.591084    0.002570  0.000547
  12     -1629.230611    0.459230    0.002306  0.000393
  13     -1629.230794    0.344178    0.001999  0.000320

--------------------------------
SUGGESTED CITATIONS FOR THIS RUN
--------------------------------

Below you find a list of papers that are relevant to this ORCA run
We neither can nor want to force you to cite these papers, but we appreciate if you do
You receive ORCA, which is the product of decades of hard work by many enthusiastic individuals, for free
The only thing we kindly ask in return is that you cite our papers,
We deeply appreciate it, if you show your appreciation for ORCA by not just citing the generic ORCA reference.

Please note that relegating all ORCA citations to the supporting information does *not* help us.
SI sections are not indexed - citations you put there will not count into any citation statistics
But we need these citations in order to attract the funding resources that allow us to do what we are doing

Therefore, if you are a happy ORCA user, please consider citing a few of the papers listed below in the main body of your paper

In addition to the list printed below, the program has created the file input.bibtex that contains the list in bibtex format
You can import this file easily into all common literature databanks and citation aid programs


List of essential papers. We consider these as the minimum necessary citations

  1. Neese, F.
     Software update: the ORCA program system, version 6.0
     WIRES Comput. Molec. Sci. 2025 15(1), e70019
     doi.org/10.1002/wcms.7019

List of papers to cite with high priority. The work reported in these papers was absolutely
necessary for this run to complete.
Our perspective: the developers of density functionals and basis sets usually get cited in chemistry papers
Good! But without the algorithms to do something with them, the functionals or basis sets would not do anything.
Hence, in our opinion, the algorithm design and method developments papers are equally worthy of getting cited

  1. Bykov, D.; Petrenko, T.; Izsak, R.; Kossmann, S.; Becker, U.; Valeev, E.; Neese, F.
     Efficient implementation of the analytic second derivatives of Hartree-Fock and hybrid DFT energies: a detailed analysis of different approximations
     Molec. Phys. 2015 113 , 1961-1977
     doi.org/10.1080/00268976.2015.1025114
  2. Neese, F.
     The SHARK Integral Generation and Digestion System
     J. Comp. Chem. 2022 44(3), 381
     doi.org/10.1002/jcc.26942

List of suggested additional citations. These are papers that are important in the 'surrounding' of 
of this run, or papers that preceded the highly important papers. If you like your results we are grateful for a citation.

  1. Neese, F.
     The ORCA program system
     WIRES Comput. Molec. Sci. 2012 2(1), 73-78
     doi.org/10.1002/wcms.81
  2. Neese, F.
     Software update: the ORCA program system, version 4.0
     WIRES Comput. Molec. Sci. 2018 8(1), 1-6
     doi.org/10.1002/wcms.1327
  3. Neese, F.; Wennmohs, F.; Becker, U.; Riplinger, C.
     The ORCA quantum chemistry program package
     J. Chem. Phys. 2020 152(22), 224108
     doi.org/10.1063/5.0004608
  4. Neese, F.
     Software update: The ORCA program system—Version 5.0
     WIRES Comput. Molec. Sci. 2022 12(1), e1606
     doi.org/10.1002/wcms.1606

List of optional additional citations

  1. Neese, F.
     Approximate second-order SCF convergence for spin unrestricted wavefunctions
     Chem. Phys. Lett. 2000 325(1-3), 93-98
     doi.org/10.1016/s0009-2614(00)00662-x

Timings for individual modules:

Sum of individual times          ...      245.392 sec (=   4.090 min)
Numerical frequency calculation  ...      202.009 sec (=   3.367 min)  82.3 %
External energy and gradient     ...       43.384 sec (=   0.723 min)  17.7 %
                             ****ORCA TERMINATED NORMALLY****
TOTAL RUN TIME: 0 days 0 hours 4 minutes 8 seconds 585 msec
