
                                 *****************
                                 * O   R   C   A *
                                 *****************

                                            #,                                       
                                            ###                                      
                                            ####                                     
                                            #####                                    
                                            ######                                   
                                           ########,                                 
                                     ,,################,,,,,                         
                               ,,#################################,,                 
                          ,,##########################################,,             
                       ,#########################################, ''#####,          
                    ,#############################################,,   '####,        
                  ,##################################################,,,,####,       
                ,###########''''           ''''###############################       
              ,#####''   ,,,,##########,,,,          '''####'''          '####       
            ,##' ,,,,###########################,,,                        '##       
           ' ,,###''''                  '''############,,,                           
         ,,##''                                '''############,,,,        ,,,,,,###''
      ,#''                                            '''#######################'''  
     '                                                          ''''####''''         
             ,#######,   #######,   ,#######,      ##                                
            ,#'     '#,  ##    ##  ,#'     '#,    #''#        ,####,   ,####,        
            ##       ##  ##   ,#'  ##            #'  '#       #'       #'  '#        
            ##       ##  #######   ##           ,######,      #####,   #    #        
            '#,     ,#'  ##    ##  '#,     ,#' ,#      #,     #,   #   #,  ,#        
             '#######'   ##     ##  '#######'  #'      '#     '####' # '####'        



                #########################################################
                #                        -***-                          #
                #          Department of theory and spectroscopy        #
                #                                                       #
                #                      Frank Neese                      #
                #                                                       #
                #     Directorship, Architecture, Infrastructure        #
                #                    SHARK, DRIVERS                     #
                #        Core code/Algorithms in most modules           #
                #                                                       #
                #        Max Planck Institute fuer Kohlenforschung      #
                #                Kaiser Wilhelm Platz 1                 #
                #                 D-45470 Muelheim/Ruhr                 #
                #                      Germany                          #
                #                                                       #
                #                  All rights reserved                  #
                #                        -***-                          #
                #########################################################


                         Program Version 6.0.1  -  RELEASE   -


 With contributions from (in alphabetic order):
[Max-Planck-Institut fuer Kohlenforschung]                               
  Daniel Aravena         : Magnetic Suceptibility                        
  Michael Atanasov       : Ab Initio Ligand Field Theory (pilot matlab implementation)
  Alexander A. Auer      : GIAO ZORA, VPT2 properties, NMR spectrum      
  Ute Becker             : All parallelization in ORCA, NUMFREQ, NUMCALC 
  Giovanni Bistoni       : ED, misc. LED, open-shell LED, HFLD           
  Martin Brehm           : Molecular dynamics                            
  Dmytro Bykov           : pre 5.0 version of the SCF Hessian            
  Marcos Casanova-Páez   : Triplet and SCS-CIS(D). UHF-(DLPNO)-IP/EA/STEOM-CCSD. UHF-CVS-IP/STEOM-CCSD   
  Vijay G. Chilkuri      : MRCI spin determinant printing, contributions to CSF-ICE 
  Pauline Colinet        : FMM embedding                                 
  Dipayan Datta          : RHF DLPNO-CCSD density                        
  Achintya Kumar Dutta   : EOM-CC, STEOM-CC                              
  Nicolas Foglia         : Exact transition moments, OPA infrastructure, MCD improvements    
  Dmitry Ganyushin       : Spin-Orbit,Spin-Spin,Magnetic field MRCI      
  Miquel Garcia-Rates    : C-PCM and meta-GGA Hessian, CCSD/C-PCM, Gaussian charge scheme 
  Tiago L. C. Gouveia    : GS-ROHF, GS-ROCIS                             
  Yang Guo               : DLPNO-NEVPT2, F12-NEVPT2, CIM, IAO-localization        
  Andreas Hansen         : Spin unrestricted coupled pair/coupled cluster methods 
  Ingolf Harden          : AUTO-CI MPn and infrastructure                
  Benjamin Helmich-Paris : MC-RPA, TRAH-(SCF,CASSCF), AVAS, COSX integrals, SCF dyn. polar. 
  Lee Huntington         : MR-EOM, pCC                                   
  Robert Izsak           : Overlap fitted RIJCOSX, COSX-SCS-MP3, EOM     
  Riya Kayal             : Wick's Theorem for AUTO-CI, AUTO-CI UHF-CCSDT 
  Emily Kempfer          : AUTO-CI, RHF CISDT and CCSDT                  
  Christian Kollmar      : KDIIS, OOCD, Brueckner-CCSD(T), CCSD density, CASPT2, CASPT2-K, improved NEVPT2 
  Axel Koslowski         : Symmetry handling                             
  Simone Kossmann        : meta-GGA functionals, TD-DFT gradient, OOMP2, (MP2 Hessian; deprecated post 5.0) 
  Lucas Lang             : DCDCAS                                        
  Marvin Lechner         : AUTO-CI (C++ implementation), FIC-MRCC        
  Spencer Leger          : CASSCF response                               
  Dagmar Lenk            : GEPOL surface, SMD, ORCA-2-JSON               
  Dimitrios Liakos       : Extrapolation schemes; Compound Job, initial MDCI parallelization 
  Dimitrios Manganas     : Further ROCIS development; embedding schemes. LFT, Crystal Embedding 
  Dimitrios Pantazis     : SARC Basis sets                               
  Anastasios Papadopoulos: AUTO-CI, single reference methods and gradients 
  Taras Petrenko         : pre 6.0 DFT Hessian and TD-DFT gradient, (ASA, deprecated), ECA, 1-Electron XAS/XES, NRVS 
  Peter Pinski           : DLPNO-MP2, DLPNO-MP2 Gradient                 
  Christoph Reimann      : Effective Core Potentials                     
  Marius Retegan         : Local ZFS, SOC                                
  Christoph Riplinger    : Optimizer, TS searches, QM/MM, DLPNO-CCSD(T), (RO)-DLPNO pert. Triples 
  Michael Roemelt        : Original ROCIS implementation                 
  Masaaki Saitow         : Open-shell DLPNO-CCSD energy and density      
  Barbara Sandhoefer     : DKH picture change effects                    
  Kantharuban Sivalingam : CASSCF convergence/infrastructure, NEVPT2 and variants, FIC-MRCI 
  Bernardo de Souza      : ESD, SOC TD-DFT                               
  Georgi L. Stoychev     : AutoAux, RI-MP2 NMR, DLPNO-MP2 response, X2C  
  Van Anh Tran           : RI-MP2 g-tensors                              
  Willem Van den Heuvel  : Paramagnetic NMR                              
  Zikuan Wang            : NOTCH, Electric field optimization            
  Frank Wennmohs         : Technical directorship and infrastructure     
  Hang Xu                : AUTO-CI-Response properties                   
                                                                         
[FACCTs GmbH]                                                            
  Markus Bursch, Miquel Garcia-Rates, Christoph Riplinger, Bernardo de Souza, Georgi L. Stoychev 
                                                                 
  APM, Basis sets (HGBS, AHGBS, def-TZVP (Ac-Lr), def2-XVPD (La-Lu)), CI-OPT, improved COSX, DLPNO-Multilevel,           
  DOCKER, DRACO, updates on ESD, GOAT, IRC, LR-CPCM, MBIS, meta-GGA TD-DFT gradient, ML-optimized integration grids, 
  MM, NACMEs, nearIR, NEB, NEB-TS, NL-DFT gradient (VV10), 2- and 3-layer-ONIOM, interface openCOSMO-RS, QMMM,   
  Crystal-QMMM, SF, symmetry and pop. for TD-DFT, r2SCAN hybrids, SOLVATOR                                   
                                                                         
[Other institutions]                                                     
  V. Asgeirsson          : NEB                                           
  Christoph Bannwarth    : sTDA-DFT, sTD-DFT, PBEh-3c, B97-3c, D3        
  Sebastian Ehlert       : rSCAN, r2SCAN, r2SCAN-3c, D4, dhf basis sets  
  Marvin Friede          : D4 for Fr, Ra, Ac-Lr                          
  Lars Goerigk           : TD-DFT with DH, B97 family of functionals     
  Stefan Grimme          : VdW corrections, initial TS optimization, DFT functionals, gCP, sTDA/sTD-DF 
  Waldemar Hujo          : DFT-NL                                        
  H. Jonsson             : NEB                                           
  Holger Kruse           : gCP                                           
  Marcel Mueller         : wB97X-3c, vDZP basis set                      
  Hagen Neugebauer       : wr2SCAN                                       
  Tobias Risthaus        : range-separated hybrid DFT                    
  Lukas Wittmann         : regularized MP2, r2SCAN double-hybrids, wr2SCAN        
                                                                         
We gratefully acknowledge several colleagues who have allowed us to      
interface, adapt or use parts of their codes:                            
  Ed Valeev, F. Pavosevic, A. Kumar             : LibInt (2-el integral package), F12 methods 
  Garnet Chan, S. Sharma, J. Yang, R. Olivares  : DMRG                   
  Ulf Ekstrom                                   : XCFun DFT Library      
  Mihaly Kallay                                 : mrcc  (arbitrary order and MRCC methods)
  Frank Weinhold                                : gennbo (NPA and NBO analysis)           
  Simon Mueller                                 : openCOSMO-RS                            
  Christopher J. Cramer and Donald G. Truhlar   : smd solvation model                     
  S Lehtola, MJT Oliveira, MAL Marques          : LibXC Library                           
  Liviu Ungur et al                             : ANISO software                          


 Your calculation uses the libint2 library for the computation of 2-el integrals
 For citations please refer to: http://libint.valeyev.net

 Your ORCA version has been built with support for libXC version: 6.2.2
 For citations please refer to: https://libxc.gitlab.io

 This ORCA versions uses:
   CBLAS   interface :  Fast vector & matrix operations
   LAPACKE interface :  Fast linear algebra routines
   SCALAPACK package :  Parallel linear algebra routines
   Shared memory     :  Shared parallel matrices
   BLAS/LAPACK       :  OpenBLAS 0.3.27  USE64BITINT DYNAMIC_ARCH NO_AFFINITY Zen SINGLE_THREADED
        Core in use  :  Zen
   Copyright (c) 2011-2014, The OpenBLAS Project


NOTE: MaxCore=2560 MB was set to SCF,MP2,MDCI,CIPSI,MRCI and CIS
      => If you want to overwrite this, your respective input block should be placed after the MaxCore statement
Your calculation utilizes the atom-pairwise dispersion correction
with the zero-damping scheme (D30)


XCFun DFT library Copyright 2009-2010 Ulf Ekstrom and contributors.
See http://admol.org/xcfun for more information.
This is free software; see the source code for copying conditions.
There is ABSOLUTELY NO WARRANTY; not even for MERCHANTABILITY or FITNESS FOR A PARTICULAR PURPOSE.
For details see the documentation.
Scientific users of this library should cite U. Ekstrom, L. Visscher, R. Bast, A. J. Thorvaldsen and K. Ruud;
J.Chem.Theor.Comp. 2010, DOI: 10.1021/ct100117s
XCFun Version 0.99 

Warning: RI is on but no J-basis has been assigned. Assigning Def2/J (nothing to worry about!)
================================================================================

----- Orbital basis set information -----
Your calculation utilizes the basis: 6-31G**
   H-He, Li-Ne : W. J. Hehre, R. Ditchfield and J.A. Pople, J. Chem. Phys. 56, 2257 (1972).
                 Note: He and Ne are unpublished basis sets taken from the Gaussian program.
                 Note: Li and B from J. D. Dill and J. A. Pople, J. Chem. Phys. 62, 2921 (1975).
   Na - Ar     : M. M. Francl, W. J. Pietro, W. J. Hehre, J. S. Binkley, M. S. Gordon, 
                 D. J. DeFrees and J. A. Pople, J. Chem. Phys. 77, 3654 (1982).
   K - Zn      : V. A. Rassolov, J. A. Pople, M. A. Ratner, and T. L. Windus, J. Chem. Phys. 109, 1223 (1998).

----- AuxJ basis set information -----
Your calculation utilizes the auxiliary basis: def2/J
   F. Weigend, Phys. Chem. Chem. Phys. 8, 1057 (2006).

================================================================================
                                        WARNINGS
                       Please study these warnings very carefully!
================================================================================


WARNING: Geometry Optimization
  ===> : Switching off AutoStart
         For restart on a previous wavefunction, please use MOREAD

================================================================================
                                       INPUT FILE
================================================================================
NAME = input.inp
|  1> # Automatically generated ORCA input
|  2> 
|  3> # Number of cores
|  4> %pal nprocs 24 end
|  5> # RAM per core
|  6> %maxcore 2560
|  7> 
|  8> ! wB97X-D3 
|  9> ! 6-31G** 
| 10> ! TightSCF 
| 11> ! Freq 
| 12> ! NoSym 
| 13> ! Opt 
| 14> 
| 15> %geom
| 16>   Calc_Hess true
| 17> end
| 18> 
| 19> 
| 20> *xyz 0 1 
| 21> C        -1.31173658     -2.08087348      0.52911260
| 22> C        -0.03660390     -1.66287601      0.93372120
| 23> C         0.98669284     -2.60814128      0.71935774
| 24> C         0.76586082     -3.85557612      0.15687018
| 25> C        -0.52209161     -4.22484541     -0.22730450
| 26> C        -1.56664490     -3.33369424     -0.03607811
| 27> H         1.99366000     -2.32815845      1.01858584
| 28> H         1.59419176     -4.54456983      0.01267370
| 29> H        -0.71419612     -5.19582345     -0.67297446
| 30> H        -2.56692628     -3.62223839     -0.33029185
| 31> H        -1.90990660     -0.24939019      1.00063238
| 32> B         0.37560544     -0.27203840      1.69502010
| 33> N        -2.43050349     -1.11705165      0.73113825
| 34> C        -3.29438097     -1.39559389      1.99960550
| 35> C        -3.18448597     -0.67422685     -0.55166140
| 36> C        -4.21750796     -0.18413124      2.21585116
| 37> C        -2.34853026     -1.51610957      3.19712548
| 38> C        -4.10415580     -2.69094027      1.91938066
| 39> C        -4.03790188      0.53826020     -0.14897313
| 40> C        -4.04259048     -1.76885686     -1.20163456
| 41> C        -2.16522847     -0.22119081     -1.59772507
| 42> H        -4.88559420     -0.43782025      3.04555619
| 43> H        -3.60918030      0.66694415      2.54151183
| 44> C        -5.00946704      0.23224408      0.98221088
| 45> H        -1.71674717     -2.40432659      3.13181444
| 46> H        -1.69319956     -0.65229435      3.30374277
| 47> H        -2.96477768     -1.59696566      4.09705470
| 48> H        -3.49241152     -3.53795998      1.60641765
| 49> H        -4.45792277     -2.90588663      2.93065704
| 50> H        -4.98692245     -2.62151430      1.28480402
| 51> H        -4.56377655      0.88088870     -1.04622837
| 52> H        -3.36946280      1.35529431      0.15762106
| 53> H        -4.72392730     -1.27120089     -1.89743347
| 54> H        -3.43094830     -2.45626813     -1.78755470
| 55> H        -4.65104492     -2.34814241     -0.51319062
| 56> H        -1.68003605      0.70753108     -1.29916577
| 57> H        -1.40985480     -0.98582541     -1.79219330
| 58> H        -2.70498291     -0.03890735     -2.53179327
| 59> H        -5.60300785      1.12178405      1.21329728
| 60> H        -5.72224104     -0.54624504      0.68296721
| 61> H         1.53447779     -0.02533558      1.39281293
| 62> C        -0.47329641      1.08110446      1.39391102
| 63> C        -1.22138219      1.90336197      2.22959903
| 64> C        -1.37807587      3.17655269      1.61961460
| 65> H        -1.56287465      1.62532756      3.21987642
| 66> H        -1.84650638      4.05480903      2.04343551
| 67> H         0.33824730     -0.48644523      2.89695835
| 68> C        -0.74364408      3.10421191      0.40237328
| 69> H        -0.57794386      3.85733591     -0.35627840
| 70> N        -0.23049360      1.84174993      0.26006407
| 71> C         0.65193088      1.43312268     -0.81227001
| 72> H         0.38071065      1.96115667     -1.73095597
| 73> H         1.69576851      1.63841692     -0.56280452
| 74> H         0.55266834      0.35942095     -0.97980220
| 75> *
| 76> 
| 77> 
| 78>                          ****END OF INPUT****
================================================================================

                       *****************************
                       * Geometry Optimization Run *
                       *****************************

Geometry optimization settings:
Update method            Update   .... BFGS
Choice of coordinates    CoordSys .... (2022) Redundant Internals
Initial Hessian          InHess   .... Almloef's Model
Max. no of cycles        MaxIter  .... 162

Convergence Tolerances:
Energy Change            TolE     ....  5.0000e-06 Eh
Max. Gradient            TolMAXG  ....  3.0000e-04 Eh/bohr
RMS Gradient             TolRMSG  ....  1.0000e-04 Eh/bohr
Max. Displacement        TolMAXD  ....  4.0000e-03 bohr
RMS Displacement         TolRMSD  ....  2.0000e-03 bohr
Strict Convergence                .... False

------------------------------------------------------------------------------
                        ORCA OPTIMIZATION COORDINATE SETUP
------------------------------------------------------------------------------

The optimization will be done in redundant internal coordinates (2022)
Making redundant internal coordinates   ...  (2022 redundants) done
Evaluating the initial hessian          ...  (Is done on the fly) done
Evaluating the coordinates              ...  done
Calculating the B-matrix                .... done
Calculating the G-matrix                .... done
Diagonalizing the G-matrix              .... done
Small eigenvalue found = 3.221e-03
Small eigenvalue found = 8.766e-03
Small eigenvalue found = 1.104e-02
Small eigenvalue found = 1.632e-02
Small eigenvalue found = 1.865e-02
Small eigenvalue found = 2.214e-02
The first mode is                       ....  130
The number of degrees of freedom        ....  156

    -----------------------------------------------------------------
                    Redundant Internal Coordinates


    -----------------------------------------------------------------
         Definition                    Initial Value    d2E/dq (diagonal element)
    -----------------------------------------------------------------
      1. B(C   1,C   0)                  1.4016         0.000000   
      2. B(C   2,C   1)                  1.4095         0.000000   
      3. B(C   3,C   2)                  1.3861         0.000000   
      4. B(C   4,C   3)                  1.3938         0.000000   
      5. B(C   5,C   4)                  1.3863         0.000000   
      6. B(C   5,C   0)                  1.3978         0.000000   
      7. B(H   6,C   2)                  1.0872         0.000000   
      8. B(H   7,C   3)                  1.0870         0.000000   
      9. B(H   8,C   4)                  1.0855         0.000000   
     10. B(H   9,C   5)                  1.0818         0.000000   
     11. B(B  11,C   1)                  1.6383         0.000000   
     12. B(N  12,C   0)                  1.4904         0.000000   
     13. B(N  12,H  10)                  1.0471         0.000000   
     14. B(C  13,N  12)                  1.5598         0.000000   
     15. B(C  14,N  12)                  1.5525         0.000000   
     16. B(C  15,C  13)                  1.5384         0.000000   
     17. B(C  16,C  13)                  1.5308         0.000000   
     18. B(C  17,C  13)                  1.5297         0.000000   
     19. B(C  18,C  14)                  1.5364         0.000000   
     20. B(C  19,C  14)                  1.5353         0.000000   
     21. B(C  20,C  14)                  1.5292         0.000000   
     22. B(H  21,C  15)                  1.0950         0.000000   
     23. B(H  22,C  15)                  1.0956         0.000000   
     24. B(C  23,C  18)                  1.5222         0.000000   
     25. B(C  23,C  15)                  1.5240         0.000000   
     26. B(H  24,C  16)                  1.0919         0.000000   
     27. B(H  25,C  16)                  1.0895         0.000000   
     28. B(H  26,C  16)                  1.0937         0.000000   
     29. B(H  27,C  17)                  1.0907         0.000000   
     30. B(H  28,C  17)                  1.0927         0.000000   
     31. B(H  29,C  17)                  1.0894         0.000000   
     32. B(H  30,C  18)                  1.0950         0.000000   
     33. B(H  31,C  18)                  1.0993         0.000000   
     34. B(H  32,C  19)                  1.0936         0.000000   
     35. B(H  33,C  19)                  1.0908         0.000000   
     36. B(H  34,C  19)                  1.0862         0.000000   
     37. B(H  35,C  20)                  1.0895         0.000000   
     38. B(H  36,C  20)                  1.0923         0.000000   
     39. B(H  37,C  20)                  1.0941         0.000000   
     40. B(H  38,C  23)                  1.0941         0.000000   
     41. B(H  39,C  23)                  1.0971         0.000000   
     42. B(H  40,B  11)                  1.2228         0.000000   
     43. B(C  41,B  11)                  1.6255         0.000000   
     44. B(C  42,C  41)                  1.3907         0.000000   
     45. B(C  43,C  42)                  1.4204         0.000000   
     46. B(H  44,C  42)                  1.0838         0.000000   
     47. B(H  45,H  38)                  4.8377         0.000000   
     48. B(H  45,C  43)                  1.0818         0.000000   
     49. B(H  46,B  11)                  1.2215         0.000000   
     50. B(C  47,C  43)                  1.3746         0.000000   
     51. B(H  48,C  47)                  1.0818         0.000000   
     52. B(N  49,C  47)                  1.3702         0.000000   
     53. B(N  49,C  41)                  1.3868         0.000000   
     54. B(C  50,N  49)                  1.4476         0.000000   
     55. B(H  51,C  50)                  1.0938         0.000000   
     56. B(H  52,C  50)                  1.0927         0.000000   
     57. B(H  53,C  50)                  1.0912         0.000000   
     58. A(C   1,C   0,N  12)          116.8030         0.000000   
     59. A(C   1,C   0,C   5)          123.3618         0.000000   
     60. A(C   5,C   0,N  12)          119.8348         0.000000   
     61. A(C   2,C   1,B  11)          117.2170         0.000000   
     62. A(C   0,C   1,C   2)          114.6203         0.000000   
     63. A(C   0,C   1,B  11)          128.0434         0.000000   
     64. A(C   1,C   2,C   3)          123.3405         0.000000   
     65. A(C   1,C   2,H   6)          117.2507         0.000000   
     66. A(C   3,C   2,H   6)          119.4087         0.000000   
     67. A(C   4,C   3,H   7)          119.9764         0.000000   
     68. A(C   2,C   3,C   4)          119.8345         0.000000   
     69. A(C   2,C   3,H   7)          120.1889         0.000000   
     70. A(C   3,C   4,H   8)          120.9085         0.000000   
     71. A(C   3,C   4,C   5)          119.2042         0.000000   
     72. A(C   5,C   4,H   8)          119.8872         0.000000   
     73. A(C   4,C   5,H   9)          119.1904         0.000000   
     74. A(C   0,C   5,H   9)          121.1723         0.000000   
     75. A(C   0,C   5,C   4)          119.6372         0.000000   
     76. A(C   1,B  11,H  46)          107.4905         0.000000   
     77. A(C  41,B  11,H  46)          108.2052         0.000000   
     78. A(H  40,B  11,C  41)          106.3326         0.000000   
     79. A(C   1,B  11,C  41)          119.2902         0.000000   
     80. A(C   1,B  11,H  40)          107.1515         0.000000   
     81. A(H  40,B  11,H  46)          107.9143         0.000000   
     82. A(C  13,N  12,C  14)          116.9961         0.000000   
     83. A(H  10,N  12,C  13)          102.3585         0.000000   
     84. A(H  10,N  12,C  14)          102.5777         0.000000   
     85. A(C   0,N  12,C  14)          115.9132         0.000000   
     86. A(C   0,N  12,C  13)          114.2354         0.000000   
     87. A(C   0,N  12,H  10)          101.3928         0.000000   
     88. A(C  16,C  13,C  17)          107.5446         0.000000   
     89. A(C  15,C  13,C  17)          110.8890         0.000000   
     90. A(N  12,C  13,C  17)          113.6877         0.000000   
     91. A(C  15,C  13,C  16)          108.8332         0.000000   
     92. A(N  12,C  13,C  16)          107.9412         0.000000   
     93. A(N  12,C  13,C  15)          107.8204         0.000000   
     94. A(N  12,C  14,C  18)          106.1587         0.000000   
     95. A(C  19,C  14,C  20)          107.1079         0.000000   
     96. A(C  18,C  14,C  20)          108.4047         0.000000   
     97. A(N  12,C  14,C  20)          109.0282         0.000000   
     98. A(C  18,C  14,C  19)          111.2948         0.000000   
     99. A(N  12,C  14,C  19)          114.7024         0.000000   
    100. A(H  22,C  15,C  23)          108.4762         0.000000   
    101. A(H  21,C  15,C  23)          111.0754         0.000000   
    102. A(C  13,C  15,C  23)          114.4067         0.000000   
    103. A(H  21,C  15,H  22)          107.0670         0.000000   
    104. A(C  13,C  15,H  22)          108.6824         0.000000   
    105. A(C  13,C  15,H  21)          106.8682         0.000000   
    106. A(H  24,C  16,H  25)          107.6238         0.000000   
    107. A(H  25,C  16,H  26)          108.4822         0.000000   
    108. A(H  24,C  16,H  26)          108.3659         0.000000   
    109. A(C  13,C  16,H  26)          107.5400         0.000000   
    110. A(C  13,C  16,H  25)          112.6934         0.000000   
    111. A(C  13,C  16,H  24)          112.0092         0.000000   
    112. A(H  28,C  17,H  29)          106.8149         0.000000   
    113. A(H  27,C  17,H  29)          109.6845         0.000000   
    114. A(C  13,C  17,H  29)          113.9247         0.000000   
    115. A(H  27,C  17,H  28)          107.1201         0.000000   
    116. A(C  13,C  17,H  28)          106.8227         0.000000   
    117. A(C  13,C  17,H  27)          112.0701         0.000000   
    118. A(H  30,C  18,H  31)          106.7388         0.000000   
    119. A(C  23,C  18,H  31)          109.2852         0.000000   
    120. A(C  14,C  18,H  31)          108.7774         0.000000   
    121. A(C  23,C  18,H  30)          111.4260         0.000000   
    122. A(C  14,C  18,H  30)          107.3932         0.000000   
    123. A(C  14,C  18,C  23)          112.9944         0.000000   
    124. A(C  14,C  19,H  33)          111.3034         0.000000   
    125. A(C  14,C  19,H  32)          107.0452         0.000000   
    126. A(H  33,C  19,H  34)          108.5698         0.000000   
    127. A(H  32,C  19,H  34)          107.2749         0.000000   
    128. A(C  14,C  19,H  34)          115.1525         0.000000   
    129. A(H  32,C  19,H  33)          107.1182         0.000000   
    130. A(H  36,C  20,H  37)          107.8064         0.000000   
    131. A(H  35,C  20,H  37)          108.1570         0.000000   
    132. A(C  14,C  20,H  37)          107.7309         0.000000   
    133. A(H  35,C  20,H  36)          109.7268         0.000000   
    134. A(C  14,C  20,H  36)          112.0459         0.000000   
    135. A(C  14,C  20,H  35)          111.2174         0.000000   
    136. A(C  15,C  23,C  18)          108.9530         0.000000   
    137. A(H  38,C  23,H  39)          106.3847         0.000000   
    138. A(C  18,C  23,H  39)          110.7705         0.000000   
    139. A(C  15,C  23,H  39)          111.3798         0.000000   
    140. A(C  18,C  23,H  38)          109.8627         0.000000   
    141. A(C  15,C  23,H  38)          109.4566         0.000000   
    142. A(C  42,C  41,N  49)          105.1406         0.000000   
    143. A(B  11,C  41,N  49)          121.1053         0.000000   
    144. A(B  11,C  41,C  42)          131.4358         0.000000   
    145. A(C  43,C  42,H  44)          125.9851         0.000000   
    146. A(C  41,C  42,H  44)          124.5326         0.000000   
    147. A(C  41,C  42,C  43)          109.3443         0.000000   
    148. A(H  45,C  43,C  47)          126.1212         0.000000   
    149. A(C  42,C  43,C  47)          106.3914         0.000000   
    150. A(C  42,C  43,H  45)          127.3865         0.000000   
    151. A(H  48,C  47,N  49)          120.7481         0.000000   
    152. A(C  43,C  47,N  49)          108.2597         0.000000   
    153. A(C  43,C  47,H  48)          130.9277         0.000000   
    154. A(C  47,N  49,C  50)          124.4245         0.000000   
    155. A(C  41,N  49,C  50)          123.8871         0.000000   
    156. A(C  41,N  49,C  47)          110.7867         0.000000   
    157. A(H  52,C  50,H  53)          107.8672         0.000000   
    158. A(H  51,C  50,H  53)          108.8749         0.000000   
    159. A(N  49,C  50,H  53)          109.6349         0.000000   
    160. A(H  51,C  50,H  52)          109.7510         0.000000   
    161. A(N  49,C  50,H  52)          111.1106         0.000000   
    162. A(N  49,C  50,H  51)          109.5576         0.000000   
    163. D(C   2,C   1,C   0,C   5)      0.3502         0.000000   
    164. D(B  11,C   1,C   0,C   5)   -175.5289         0.000000   
    165. D(C   2,C   1,C   0,N  12)   -179.8814         0.000000   
    166. D(B  11,C   1,C   0,N  12)      4.2395         0.000000   
    167. D(C   3,C   2,C   1,C   0)     -0.0977         0.000000   
    168. D(H   6,C   2,C   1,C   0)   -179.9568         0.000000   
    169. D(C   3,C   2,C   1,B  11)    176.2535         0.000000   
    170. D(H   6,C   2,C   1,B  11)     -3.6056         0.000000   
    171. D(H   7,C   3,C   2,C   1)    179.8544         0.000000   
    172. D(C   4,C   3,C   2,C   1)      0.0047         0.000000   
    173. D(C   4,C   3,C   2,H   6)    179.8609         0.000000   
    174. D(H   7,C   3,C   2,H   6)     -0.2893         0.000000   
    175. D(H   8,C   4,C   3,H   7)     -0.0875         0.000000   
    176. D(C   5,C   4,C   3,H   7)   -179.9987         0.000000   
    177. D(H   8,C   4,C   3,C   2)    179.7625         0.000000   
    178. D(C   5,C   4,C   3,C   2)     -0.1486         0.000000   
    179. D(H   9,C   5,C   4,H   8)      0.3579         0.000000   
    180. D(C   0,C   5,C   4,H   8)   -179.5244         0.000000   
    181. D(H   9,C   5,C   4,C   3)   -179.7301         0.000000   
    182. D(H   9,C   5,C   0,C   1)    179.6119         0.000000   
    183. D(H   9,C   5,C   0,N  12)     -0.1499         0.000000   
    184. D(C   4,C   5,C   0,N  12)    179.7301         0.000000   
    185. D(C   0,C   5,C   4,C   3)      0.3876         0.000000   
    186. D(C   4,C   5,C   0,C   1)     -0.5082         0.000000   
    187. D(C  41,B  11,C   1,C   2)    152.1094         0.000000   
    188. D(C  41,B  11,C   1,C   0)    -32.1035         0.000000   
    189. D(H  46,B  11,C   1,C   0)     91.4246         0.000000   
    190. D(H  40,B  11,C   1,C   0)   -152.8049         0.000000   
    191. D(H  40,B  11,C   1,C   2)     31.4080         0.000000   
    192. D(H  10,N  12,C   0,C   5)   -170.6560         0.000000   
    193. D(H  10,N  12,C   0,C   1)      9.5670         0.000000   
    194. D(C  14,N  12,C   0,C   1)    119.7412         0.000000   
    195. D(C  13,N  12,C   0,C   5)     80.0667         0.000000   
    196. D(C  13,N  12,C   0,C   1)    -99.7104         0.000000   
    197. D(C  16,C  13,N  12,C  14)   -167.9848         0.000000   
    198. D(C  16,C  13,N  12,H  10)    -56.7733         0.000000   
    199. D(C  16,C  13,N  12,C   0)     51.9137         0.000000   
    200. D(C  15,C  13,N  12,C  14)    -50.5656         0.000000   
    201. D(C  15,C  13,N  12,H  10)     60.6459         0.000000   
    202. D(C  15,C  13,N  12,C   0)    169.3329         0.000000   
    203. D(C  19,C  14,N  12,C  13)    -69.5907         0.000000   
    204. D(C  19,C  14,N  12,C   0)     69.8467         0.000000   
    205. D(C  19,C  14,N  12,H  10)    179.3231         0.000000   
    206. D(C  18,C  14,N  12,C  13)     53.7400         0.000000   
    207. D(C  18,C  14,N  12,H  10)    -57.3462         0.000000   
    208. D(C  18,C  14,N  12,C   0)   -166.8226         0.000000   
    209. D(H  22,C  15,C  13,C  17)    164.5449         0.000000   
    210. D(H  22,C  15,C  13,C  16)     46.4408         0.000000   
    211. D(H  22,C  15,C  13,N  12)    -70.3997         0.000000   
    212. D(H  21,C  15,C  13,C  17)     49.3137         0.000000   
    213. D(H  21,C  15,C  13,C  16)    -68.7904         0.000000   
    214. D(H  21,C  15,C  13,N  12)    174.3691         0.000000   
    215. D(H  25,C  16,C  13,C  17)    177.1972         0.000000   
    216. D(H  25,C  16,C  13,C  15)    -62.6082         0.000000   
    217. D(H  25,C  16,C  13,N  12)     54.1552         0.000000   
    218. D(H  24,C  16,C  13,C  17)     55.6635         0.000000   
    219. D(H  24,C  16,C  13,C  15)    175.8582         0.000000   
    220. D(H  24,C  16,C  13,N  12)    -67.3785         0.000000   
    221. D(H  28,C  17,C  13,C  15)    -72.2492         0.000000   
    222. D(H  28,C  17,C  13,N  12)    166.0737         0.000000   
    223. D(H  27,C  17,C  13,C  16)    -70.3941         0.000000   
    224. D(H  27,C  17,C  13,C  15)    170.7218         0.000000   
    225. D(H  27,C  17,C  13,N  12)     49.0447         0.000000   
    226. D(H  28,C  17,C  13,C  16)     46.6349         0.000000   
    227. D(H  30,C  18,C  14,C  20)     61.8263         0.000000   
    228. D(H  30,C  18,C  14,C  19)    -55.7188         0.000000   
    229. D(H  30,C  18,C  14,N  12)    178.8368         0.000000   
    230. D(C  23,C  18,C  14,C  20)   -174.8906         0.000000   
    231. D(C  23,C  18,C  14,C  19)     67.5643         0.000000   
    232. D(C  23,C  18,C  14,N  12)    -57.8801         0.000000   
    233. D(H  33,C  19,C  14,C  20)     42.0370         0.000000   
    234. D(H  33,C  19,C  14,C  18)    160.3652         0.000000   
    235. D(H  33,C  19,C  14,N  12)    -79.0991         0.000000   
    236. D(H  32,C  19,C  14,C  20)    -74.7070         0.000000   
    237. D(H  32,C  19,C  14,C  18)     43.6212         0.000000   
    238. D(H  32,C  19,C  14,N  12)    164.1569         0.000000   
    239. D(H  36,C  20,C  14,C  19)    -70.3167         0.000000   
    240. D(H  36,C  20,C  14,C  18)    169.4926         0.000000   
    241. D(H  36,C  20,C  14,N  12)     54.3413         0.000000   
    242. D(H  35,C  20,C  14,C  19)    166.4632         0.000000   
    243. D(H  35,C  20,C  14,C  18)     46.2725         0.000000   
    244. D(H  35,C  20,C  14,N  12)    -68.8788         0.000000   
    245. D(H  38,C  23,C  18,H  31)     59.8743         0.000000   
    246. D(H  38,C  23,C  18,H  30)    -57.8420         0.000000   
    247. D(H  38,C  23,C  18,C  14)   -178.8639         0.000000   
    248. D(C  15,C  23,C  18,H  31)    -60.0280         0.000000   
    249. D(C  15,C  23,C  18,H  30)   -177.7443         0.000000   
    250. D(C  15,C  23,C  18,C  14)     61.2338         0.000000   
    251. D(H  38,C  23,C  15,H  22)    -56.1071         0.000000   
    252. D(H  38,C  23,C  15,H  21)     61.3051         0.000000   
    253. D(H  38,C  23,C  15,C  13)   -177.6066         0.000000   
    254. D(C  18,C  23,C  15,H  22)     64.0462         0.000000   
    255. D(C  18,C  23,C  15,H  21)   -178.5416         0.000000   
    256. D(C  18,C  23,C  15,C  13)    -57.4532         0.000000   
    257. D(N  49,C  41,B  11,H  40)     40.5915         0.000000   
    258. D(N  49,C  41,B  11,C   1)    -80.5214         0.000000   
    259. D(C  42,C  41,B  11,H  46)     -3.6682         0.000000   
    260. D(C  42,C  41,B  11,H  40)   -119.3768         0.000000   
    261. D(C  42,C  41,B  11,C   1)    119.5103         0.000000   
    262. D(H  44,C  42,C  41,N  49)   -178.4027         0.000000   
    263. D(H  44,C  42,C  41,B  11)    -16.0909         0.000000   
    264. D(C  43,C  42,C  41,N  49)     -2.4585         0.000000   
    265. D(C  43,C  42,C  41,B  11)    159.8533         0.000000   
    266. D(C  47,C  43,C  42,H  44)    177.0779         0.000000   
    267. D(C  47,C  43,C  42,C  41)      1.2072         0.000000   
    268. D(H  45,C  43,C  42,H  44)      0.5780         0.000000   
    269. D(H  45,C  43,C  42,C  41)   -175.2928         0.000000   
    270. D(N  49,C  47,C  43,H  45)    177.1399         0.000000   
    271. D(N  49,C  47,C  43,C  42)      0.5826         0.000000   
    272. D(H  48,C  47,C  43,H  45)      0.1153         0.000000   
    273. D(H  48,C  47,C  43,C  42)   -176.4420         0.000000   
    274. D(C  50,N  49,C  47,C  43)   -171.6665         0.000000   
    275. D(C  41,N  49,C  47,H  48)    175.1851         0.000000   
    276. D(C  41,N  49,C  47,C  43)     -2.1994         0.000000   
    277. D(C  50,N  49,C  41,C  42)    172.4059         0.000000   
    278. D(C  50,N  49,C  41,B  11)      7.8344         0.000000   
    279. D(C  47,N  49,C  41,C  42)      2.8712         0.000000   
    280. D(C  50,N  49,C  47,H  48)      5.7180         0.000000   
    281. D(C  47,N  49,C  41,B  11)   -161.7002         0.000000   
    282. D(H  53,C  50,N  49,C  41)     37.8414         0.000000   
    283. D(H  52,C  50,N  49,C  47)     86.8218         0.000000   
    284. D(H  52,C  50,N  49,C  41)    -81.2977         0.000000   
    285. D(H  51,C  50,N  49,C  47)    -34.6164         0.000000   
    286. D(H  51,C  50,N  49,C  41)    157.2641         0.000000   
    -----------------------------------------------------------------

Number of atoms                         .... 54
Number of degrees of freedom            .... 286


         *************************************************************
         *                GEOMETRY OPTIMIZATION CYCLE   1            *
         *************************************************************
---------------------------------
CARTESIAN COORDINATES (ANGSTROEM)
---------------------------------
  C     -1.311737   -2.080873    0.529113
  C     -0.036604   -1.662876    0.933721
  C      0.986693   -2.608141    0.719358
  C      0.765861   -3.855576    0.156870
  C     -0.522092   -4.224845   -0.227304
  C     -1.566645   -3.333694   -0.036078
  H      1.993660   -2.328158    1.018586
  H      1.594192   -4.544570    0.012674
  H     -0.714196   -5.195823   -0.672974
  H     -2.566926   -3.622238   -0.330292
  H     -1.909907   -0.249390    1.000632
  B      0.375605   -0.272038    1.695020
  N     -2.430503   -1.117052    0.731138
  C     -3.294381   -1.395594    1.999605
  C     -3.184486   -0.674227   -0.551661
  C     -4.217508   -0.184131    2.215851
  C     -2.348530   -1.516110    3.197125
  C     -4.104156   -2.690940    1.919381
  C     -4.037902    0.538260   -0.148973
  C     -4.042590   -1.768857   -1.201635
  C     -2.165228   -0.221191   -1.597725
  H     -4.885594   -0.437820    3.045556
  H     -3.609180    0.666944    2.541512
  C     -5.009467    0.232244    0.982211
  H     -1.716747   -2.404327    3.131814
  H     -1.693200   -0.652294    3.303743
  H     -2.964778   -1.596966    4.097055
  H     -3.492412   -3.537960    1.606418
  H     -4.457923   -2.905887    2.930657
  H     -4.986922   -2.621514    1.284804
  H     -4.563777    0.880889   -1.046228
  H     -3.369463    1.355294    0.157621
  H     -4.723927   -1.271201   -1.897433
  H     -3.430948   -2.456268   -1.787555
  H     -4.651045   -2.348142   -0.513191
  H     -1.680036    0.707531   -1.299166
  H     -1.409855   -0.985825   -1.792193
  H     -2.704983   -0.038907   -2.531793
  H     -5.603008    1.121784    1.213297
  H     -5.722241   -0.546245    0.682967
  H      1.534478   -0.025336    1.392813
  C     -0.473296    1.081104    1.393911
  C     -1.221382    1.903362    2.229599
  C     -1.378076    3.176553    1.619615
  H     -1.562875    1.625328    3.219876
  H     -1.846506    4.054809    2.043436
  H      0.338247   -0.486445    2.896958
  C     -0.743644    3.104212    0.402373
  H     -0.577944    3.857336   -0.356278
  N     -0.230494    1.841750    0.260064
  C      0.651931    1.433123   -0.812270
  H      0.380711    1.961157   -1.730956
  H      1.695769    1.638417   -0.562805
  H      0.552668    0.359421   -0.979802

----------------------------
CARTESIAN COORDINATES (A.U.)
----------------------------
  NO LB      ZA    FRAG     MASS         X           Y           Z
   0 C     6.0000    0    12.011   -2.478823   -3.932281    0.999878
   1 C     6.0000    0    12.011   -0.069171   -3.142380    1.764477
   2 C     6.0000    0    12.011    1.864579   -4.928673    1.359389
   3 C     6.0000    0    12.011    1.447267   -7.285983    0.296442
   4 C     6.0000    0    12.011   -0.986610   -7.983801   -0.429543
   5 C     6.0000    0    12.011   -2.960530   -6.299769   -0.068178
   6 H     1.0000    0     1.008    3.767471   -4.399582    1.924848
   7 H     1.0000    0     1.008    3.012586   -8.587992    0.023950
   8 H     1.0000    0     1.008   -1.349635   -9.818683   -1.271737
   9 H     1.0000    0     1.008   -4.850788   -6.845039   -0.624161
  10 H     1.0000    0     1.008   -3.609200   -0.471279    1.890921
  11 B     5.0000    0    10.810    0.709791   -0.514078    3.203124
  12 N     7.0000    0    14.007   -4.592986   -2.110922    1.381651
  13 C     6.0000    0    12.011   -6.225478   -2.637290    3.778707
  14 C     6.0000    0    12.011   -6.017806   -1.274104   -1.042489
  15 C     6.0000    0    12.011   -7.969935   -0.347958    4.187352
  16 C     6.0000    0    12.011   -4.438079   -2.865032    6.041692
  17 C     6.0000    0    12.011   -7.755730   -5.085140    3.627104
  18 C     6.0000    0    12.011   -7.630529    1.017164   -0.281518
  19 C     6.0000    0    12.011   -7.639389   -3.342655   -2.270760
  20 C     6.0000    0    12.011   -4.091689   -0.417990   -3.019263
  21 H     1.0000    0     1.008   -9.232435   -0.827360    5.755267
  22 H     1.0000    0     1.008   -6.820362    1.260342    4.802761
  23 C     6.0000    0    12.011   -9.466521    0.438878    1.856110
  24 H     1.0000    0     1.008   -3.244182   -4.543519    5.918272
  25 H     1.0000    0     1.008   -3.199683   -1.232658    6.243169
  26 H     1.0000    0     1.008   -5.602618   -3.017828    7.742311
  27 H     1.0000    0     1.008   -6.599701   -6.685775    3.035689
  28 H     1.0000    0     1.008   -8.424253   -5.491330    5.538139
  29 H     1.0000    0     1.008   -9.423918   -4.953944    2.427928
  30 H     1.0000    0     1.008   -8.624288    1.664638   -1.977085
  31 H     1.0000    0     1.008   -6.367362    2.561135    0.297861
  32 H     1.0000    0     1.008   -8.926929   -2.402222   -3.585630
  33 H     1.0000    0     1.008   -6.483553   -4.641674   -3.377989
  34 H     1.0000    0     1.008   -8.789201   -4.437346   -0.969790
  35 H     1.0000    0     1.008   -3.174808    1.337040   -2.455068
  36 H     1.0000    0     1.008   -2.664239   -1.862940   -3.386755
  37 H     1.0000    0     1.008   -5.111677   -0.073524   -4.784396
  38 H     1.0000    0     1.008  -10.588150    2.119865    2.292800
  39 H     1.0000    0     1.008  -10.813468   -1.032254    1.290621
  40 H     1.0000    0     1.008    2.899743   -0.047877    2.632035
  41 C     6.0000    0    12.011   -0.894401    2.042991    2.634110
  42 C     6.0000    0    12.011   -2.308078    3.596833    4.213332
  43 C     6.0000    0    12.011   -2.604186    6.002815    3.060628
  44 H     1.0000    0     1.008   -2.953405    3.071424    6.084685
  45 H     1.0000    0     1.008   -3.489391    7.662479    3.861533
  46 H     1.0000    0     1.008    0.639195   -0.919248    5.474458
  47 C     6.0000    0    12.011   -1.405284    5.866110    0.760375
  48 H     1.0000    0     1.008   -1.092156    7.289308   -0.673269
  49 N     7.0000    0    14.007   -0.435570    3.480403    0.491450
  50 C     6.0000    0    12.011    1.231971    2.708209   -1.534968
  51 H     1.0000    0     1.008    0.719439    3.706049   -3.271033
  52 H     1.0000    0     1.008    3.204538    3.096159   -1.063546
  53 H     1.0000    0     1.008    1.044392    0.679207   -1.851558

--------------------------------
INTERNAL COORDINATES (ANGSTROEM)
--------------------------------
 C      0   0   0     0.000000000000     0.00000000     0.00000000
 C      1   0   0     1.401568177337     0.00000000     0.00000000
 C      2   1   0     1.409473072373   114.62029003     0.00000000
 C      3   2   1     1.386092607389   123.34046290   359.90229564
 C      4   3   2     1.393833367097   119.83449547     0.00000000
 C      5   4   3     1.386293445009   119.20418305   359.85136683
 H      3   2   1     1.087157165383   117.25066499   180.04319571
 H      4   3   2     1.087031325871   120.18892250   179.85444648
 H      5   4   3     1.085506430276   120.90853104   179.76250729
 H      6   5   4     1.081842082043   119.19043812   180.26992706
 H      1   2   3     1.983549676037    86.00699093   185.06471680
 B      2   1   3     1.638267930625   128.04335580   184.12095512
 N     11   1   2     1.047131614054    47.44207021   188.55190747
 C     13  11   1     1.559768971431   102.35848829   118.21763097
 C     13  11   1     1.552468462057   102.57774623   239.88655807
 C     14  13  11     1.538365163893   107.82035284    60.64588479
 C     14  13  11     1.530755270196   107.94116610   303.22669878
 C     14  13  11     1.529736429727   113.68769356   184.01379165
 C     15  13  11     1.536424877648   106.15867474   302.65383780
 C     15  13  11     1.535260016282   114.70236933   179.32311824
 C     15  13  11     1.529175171960   109.02822929    59.24614283
 H     16  14  13     1.095037796005   106.86822974   174.36910292
 H     16  14  13     1.095649000990   108.68238832   289.60032960
 C     19  15  13     1.522222713766   112.99437489   302.11988321
 H     17  14  13     1.091945456226   112.00923888   292.62147555
 H     17  14  13     1.089496354832   112.69338562    54.15515655
 H     17  14  13     1.093696114538   107.53996570   173.66260871
 H     18  14  13     1.090696703428   112.07013447    49.04469265
 H     18  14  13     1.092718135425   106.82273729   166.07367486
 H     18  14  13     1.089396362990   113.92468009   283.76845453
 H     19  15  13     1.094991060816   107.39323909   178.83680123
 H     19  15  13     1.099252263094   108.77735697    63.66855969
 H     20  15  13     1.093625827201   107.04523733   164.15691962
 H     20  15  13     1.090845003168   111.30339532   280.90090496
 H     20  15  13     1.086160030805   115.15245069    45.00688256
 H     21  15  13     1.089529113428   111.21743642   291.12115905
 H     21  15  13     1.092278968637   112.04585753    54.34128234
 H     21  15  13     1.094095753369   107.73092624   172.75645215
 H     24  19  15     1.094062601330   109.86271282   181.13608623
 H     24  19  15     1.097104762121   110.77045592   298.38085015
 H     12   2   1     1.222774132287   107.15149817   207.19509977
 C     12   2   1     1.625514265874   119.29022017   327.89647541
 C     42  12   2     1.390724342581   131.43584176   119.51032575
 C     43  42  12     1.420439552986   109.34434991   159.85334004
 H     43  42  12     1.083775596019   124.53259380   343.90909919
 H     44  43  42     1.081843567806   127.38654641   184.70721161
 H     12   2   1     1.221483309828   107.49046374    91.42463072
 C     44  43  42     1.374559316919   106.39136132     1.20715741
 H     48  44  43     1.081759998267   130.92771928   183.55802297
 N     48  44  43     1.370177206540   108.25966074     0.58259684
 C     50  48  44     1.447601316480   124.42453253   188.33347199
 H     51  50  48     1.093784348424   109.55759858   325.38358236
 H     51  50  48     1.092691975573   111.11056539    86.82181782
 H     51  50  48     1.091217435500   109.63493425   205.96090439

---------------------------
INTERNAL COORDINATES (A.U.)
---------------------------
 C      0   0   0     0.000000000000     0.00000000     0.00000000
 C      1   0   0     2.648580013186     0.00000000     0.00000000
 C      2   1   0     2.663518099922   114.62029003     0.00000000
 C      3   2   1     2.619335424218   123.34046290   359.90229564
 C      4   3   2     2.633963340135   119.83449547     0.00000000
 C      5   4   3     2.619714952317   119.20418305   359.85136683
 H      3   2   1     2.054429307103   117.25066499   180.04319571
 H      4   3   2     2.054191504890   120.18892250   179.85444648
 H      5   4   3     2.051309869833   120.90853104   179.76250729
 H      6   5   4     2.044385255212   119.19043812   180.26992706
 H      1   2   3     3.748365660739    86.00699093   185.06471680
 B      2   1   3     3.095877722868   128.04335580   184.12095512
 N     11   1   2     1.978791976733    47.44207021   188.55190747
 C     13  11   1     2.947536188192   102.35848829   118.21763097
 C     13  11   1     2.933740224838   102.57774623   239.88655807
 C     14  13  11     2.907088853723   107.82035284    60.64588479
 C     14  13  11     2.892708238727   107.94116610   303.22669878
 C     14  13  11     2.890782909266   113.68769356   184.01379165
 C     15  13  11     2.903422244097   106.15867474   302.65383780
 C     15  13  11     2.901220975133   114.70236933   179.32311824
 C     15  13  11     2.889722285796   109.02822929    59.24614283
 H     16  14  13     2.069321540742   106.86822974   174.36910292
 H     16  14  13     2.070476550775   108.68238832   289.60032960
 C     19  15  13     2.876584043852   112.99437489   302.11988321
 H     17  14  13     2.063477865448   112.00923888   292.62147555
 H     17  14  13     2.058849734539   112.69338562    54.15515655
 H     17  14  13     2.066786130211   107.53996570   173.66260871
 H     18  14  13     2.061118064650   112.07013447    49.04469265
 H     18  14  13     2.064938017522   106.82273729   166.07367486
 H     18  14  13     2.058660777341   113.92468009   283.76845453
 H     19  15  13     2.069233224034   107.39323909   178.83680123
 H     19  15  13     2.077285729340   108.77735697    63.66855969
 H     20  15  13     2.066653306393   107.04523733   164.15691962
 H     20  15  13     2.061398310543   111.30339532   280.90090496
 H     20  15  13     2.052544995832   115.15245069    45.00688256
 H     21  15  13     2.058911639313   111.21743642   291.12115905
 H     21  15  13     2.064108112565   112.04585753    54.34128234
 H     21  15  13     2.067541338154   107.73092624   172.75645215
 H     24  19  15     2.067478689878   109.86271282   181.13608623
 H     24  19  15     2.073227540630   110.77045592   298.38085015
 H     12   2   1     2.310708233665   107.15149817   207.19509977
 C     12   2   1     3.071776789284   119.29022017   327.89647541
 C     42  12   2     2.628088135256   131.43584176   119.51032575
 C     43  42  12     2.684241744934   109.34434991   159.85334004
 H     43  42  12     2.048039067103   124.53259380   343.90909919
 H     44  43  42     2.044388062897   127.38654641   184.70721161
 H     12   2   1     2.308268932730   107.49046374    91.42463072
 C     44  43  42     2.597540663807   106.39136132     1.20715741
 H     48  44  43     2.044230139356   130.92771928   183.55802297
 N     48  44  43     2.589259675301   108.25966074     0.58259684
 C     50  48  44     2.735570039251   124.42453253   188.33347199
 H     51  50  48     2.066952868091   109.55759858   325.38358236
 H     51  50  48     2.064888582567   111.11056539    86.82181782
 H     51  50  48     2.062102105654   109.63493425   205.96090439

---------------------
BASIS SET INFORMATION
---------------------
There are 4 groups of distinct atoms

 Group   1 Type C   : 10s4p1d contracted to 3s2p1d pattern {631/31/1}
 Group   2 Type H   : 4s1p contracted to 2s1p pattern {31/1}
 Group   3 Type B   : 10s4p1d contracted to 3s2p1d pattern {631/31/1}
 Group   4 Type N   : 10s4p1d contracted to 3s2p1d pattern {631/31/1}

Atom   0C    basis set group =>   1
Atom   1C    basis set group =>   1
Atom   2C    basis set group =>   1
Atom   3C    basis set group =>   1
Atom   4C    basis set group =>   1
Atom   5C    basis set group =>   1
Atom   6H    basis set group =>   2
Atom   7H    basis set group =>   2
Atom   8H    basis set group =>   2
Atom   9H    basis set group =>   2
Atom  10H    basis set group =>   2
Atom  11B    basis set group =>   3
Atom  12N    basis set group =>   4
Atom  13C    basis set group =>   1
Atom  14C    basis set group =>   1
Atom  15C    basis set group =>   1
Atom  16C    basis set group =>   1
Atom  17C    basis set group =>   1
Atom  18C    basis set group =>   1
Atom  19C    basis set group =>   1
Atom  20C    basis set group =>   1
Atom  21H    basis set group =>   2
Atom  22H    basis set group =>   2
Atom  23C    basis set group =>   1
Atom  24H    basis set group =>   2
Atom  25H    basis set group =>   2
Atom  26H    basis set group =>   2
Atom  27H    basis set group =>   2
Atom  28H    basis set group =>   2
Atom  29H    basis set group =>   2
Atom  30H    basis set group =>   2
Atom  31H    basis set group =>   2
Atom  32H    basis set group =>   2
Atom  33H    basis set group =>   2
Atom  34H    basis set group =>   2
Atom  35H    basis set group =>   2
Atom  36H    basis set group =>   2
Atom  37H    basis set group =>   2
Atom  38H    basis set group =>   2
Atom  39H    basis set group =>   2
Atom  40H    basis set group =>   2
Atom  41C    basis set group =>   1
Atom  42C    basis set group =>   1
Atom  43C    basis set group =>   1
Atom  44H    basis set group =>   2
Atom  45H    basis set group =>   2
Atom  46H    basis set group =>   2
Atom  47C    basis set group =>   1
Atom  48H    basis set group =>   2
Atom  49N    basis set group =>   4
Atom  50C    basis set group =>   1
Atom  51H    basis set group =>   2
Atom  52H    basis set group =>   2
Atom  53H    basis set group =>   2
---------------------------------
AUXILIARY/J BASIS SET INFORMATION
---------------------------------
There are 4 groups of distinct atoms

 Group   1 Type C   : 12s5p4d2f1g contracted to 6s4p3d1f1g pattern {711111/2111/211/2/1}
 Group   2 Type H   : 5s2p1d contracted to 3s1p1d pattern {311/2/1}
 Group   3 Type B   : 12s5p4d2f1g contracted to 6s4p3d1f1g pattern {711111/2111/211/2/1}
 Group   4 Type N   : 12s5p4d2f1g contracted to 6s4p3d1f1g pattern {711111/2111/211/2/1}

Atom   0C    basis set group =>   1
Atom   1C    basis set group =>   1
Atom   2C    basis set group =>   1
Atom   3C    basis set group =>   1
Atom   4C    basis set group =>   1
Atom   5C    basis set group =>   1
Atom   6H    basis set group =>   2
Atom   7H    basis set group =>   2
Atom   8H    basis set group =>   2
Atom   9H    basis set group =>   2
Atom  10H    basis set group =>   2
Atom  11B    basis set group =>   3
Atom  12N    basis set group =>   4
Atom  13C    basis set group =>   1
Atom  14C    basis set group =>   1
Atom  15C    basis set group =>   1
Atom  16C    basis set group =>   1
Atom  17C    basis set group =>   1
Atom  18C    basis set group =>   1
Atom  19C    basis set group =>   1
Atom  20C    basis set group =>   1
Atom  21H    basis set group =>   2
Atom  22H    basis set group =>   2
Atom  23C    basis set group =>   1
Atom  24H    basis set group =>   2
Atom  25H    basis set group =>   2
Atom  26H    basis set group =>   2
Atom  27H    basis set group =>   2
Atom  28H    basis set group =>   2
Atom  29H    basis set group =>   2
Atom  30H    basis set group =>   2
Atom  31H    basis set group =>   2
Atom  32H    basis set group =>   2
Atom  33H    basis set group =>   2
Atom  34H    basis set group =>   2
Atom  35H    basis set group =>   2
Atom  36H    basis set group =>   2
Atom  37H    basis set group =>   2
Atom  38H    basis set group =>   2
Atom  39H    basis set group =>   2
Atom  40H    basis set group =>   2
Atom  41C    basis set group =>   1
Atom  42C    basis set group =>   1
Atom  43C    basis set group =>   1
Atom  44H    basis set group =>   2
Atom  45H    basis set group =>   2
Atom  46H    basis set group =>   2
Atom  47C    basis set group =>   1
Atom  48H    basis set group =>   2
Atom  49N    basis set group =>   4
Atom  50C    basis set group =>   1
Atom  51H    basis set group =>   2
Atom  52H    basis set group =>   2
Atom  53H    basis set group =>   2


           ************************************************************
           *        Program running with 24 parallel MPI-processes    *
           *              working on a common directory               *
           ************************************************************
------------------------------------------------------------------------------
                             ORCA STARTUP CALCULATIONS
                           -- RI-GTO INTEGRALS CHOSEN --
------------------------------------------------------------------------------
------------------------------------------------------------------------------
                   ___                                                        
                  /   \      - P O W E R E D   B Y -                         
                 /     \                                                     
                 |  |  |   _    _      __       _____    __    __             
                 |  |  |  | |  | |    /  \     |  _  \  |  |  /  |          
                  \  \/   | |  | |   /    \    | | | |  |  | /  /          
                 / \  \   | |__| |  /  /\  \   | |_| |  |  |/  /          
                |  |  |   |  __  | /  /__\  \  |    /   |      \           
                |  |  |   | |  | | |   __   |  |    \   |  |\   \          
                \     /   | |  | | |  |  |  |  | |\  \  |  | \   \       
                 \___/    |_|  |_| |__|  |__|  |_| \__\ |__|  \__/        
                                                                              
                      - O R C A' S   B I G   F R I E N D -                    
                                      &                                       
                       - I N T E G R A L  F E E D E R -                       
                                                                              
 v1 FN, 2020, v2 2021, v3 2022-2024                                           
------------------------------------------------------------------------------


----------------------
SHARK INTEGRAL PACKAGE
----------------------

Number of atoms                             ...     54
Number of basis functions                   ...    477
Number of shells                            ...    231
Maximum angular momentum                    ...      2
Integral batch strategy                     ... SHARK/LIBINT Hybrid
RI-J (if used) integral strategy            ... SPLIT-RIJ (Revised 2003 algorithm where possible)
Printlevel                                  ...      1
Contraction scheme used                     ... SEGMENTED contraction
Prescreening option                         ... SCHWARTZ
   Thresh                                   ... 2.500e-11
   Tcut                                     ... 2.500e-12
   Tpresel                                  ... 2.500e-12 
Coulomb Range Separation                    ... NOT USED
Exchange Range Separation                   ... Long Range
   Mu parameter                             ... 2.500e-01
   Scaling (regular/separated)              ... 1.957e-01 8.043e-01
Multipole approximations                    ... NOT USED
Finite Nucleus Model                        ... NOT USED
CABS basis                                  ... NOT available
Auxiliary Coulomb fitting basis             ... AVAILABLE
   # of basis functions in Aux-J            ...   1468
   # of shells in Aux-J                     ...    500
   Maximum angular momentum in Aux-J        ...      4
Auxiliary J/K fitting basis                 ... NOT available
Auxiliary Correlation fitting basis         ... NOT available
Auxiliary 'external' fitting basis          ... NOT available

Checking pre-screening integrals            ... done (  0.0 sec) Dimension = 231
Check shell pair data                       ... done (  0.0 sec)
Shell pair information
Shell pair cut-off parameter TPreSel        ...   2.5e-12
Total number of shell pairs                 ...     26796
Shell pairs after pre-screening             ...     20961
Total number of primitive shell pairs       ...    125826
Primitive shell pairs kept                  ...     57176
          la=0 lb=0:   6938 shell pairs
          la=1 lb=0:   7913 shell pairs
          la=1 lb=1:   2330 shell pairs
          la=2 lb=0:   2271 shell pairs
          la=2 lb=1:   1303 shell pairs
          la=2 lb=2:    206 shell pairs

Calculating one electron integrals          ... done (  0.1 sec)
Calculating RI/J V-Matrix + Cholesky decomp.... done (  0.3 sec)
Calculating Nuclear repulsion               ... done (  0.0 sec) ENN=   2151.552909407015 Eh

Diagonalization of the overlap matrix:
Smallest eigenvalue                        ... 4.422e-04
Time for diagonalization                   ...    0.055 sec
Threshold for overlap eigenvalues          ... 1.000e-07
Number of eigenvalues below threshold      ... 0
Time for construction of square roots      ...    0.025 sec
Total time needed                          ...    0.088 sec

-------------------
DFT GRID GENERATION
-------------------

General Integration Accuracy     IntAcc      ... 4.388
Radial Grid Type                 RadialGrid  ... OptM3 with GC (2021)
Angular Grid (max. ang.)         AngularGrid ... 4 (Lebedev-302)
Angular grid pruning method      GridPruning ... 4 (adaptive)
Weight generation scheme         WeightScheme... mBecke (2022)
Basis function cutoff            BFCut       ... 1.0000e-11
Integration weight cutoff        WCut        ... 1.0000e-14
Partially contracted basis set               ... off
Rotationally invariant grid construction     ... off
Angular grids for H and He will be reduced by one unit

Total number of grid points                  ...   232346
Total number of batches                      ...     3657
Average number of points per batch           ...       63
Average number of grid points per atom       ...     4303

--------------------
COSX GRID GENERATION
--------------------

GRIDX 1
-------
General Integration Accuracy     IntAcc      ... 3.816
Radial Grid Type                 RadialGrid  ... OptM3 with GC (2021)
Angular Grid (max. ang.)         AngularGrid ... 1 (Lebedev-50)
Angular grid pruning method      GridPruning ... 4 (adaptive)
Weight generation scheme         WeightScheme... mBecke (2022)
Basis function cutoff            BFCut       ... 1.0000e-11
Integration weight cutoff        WCut        ... 1.0000e-14
Partially contracted basis set               ... on
Rotationally invariant grid construction     ... off
Angular grids for H and He will be reduced by one unit

Total number of grid points                  ...    29487
Total number of batches                      ...      260
Average number of points per batch           ...      113
Average number of grid points per atom       ...      546
UseSFitting                                  ... on

GRIDX 2
-------
General Integration Accuracy     IntAcc      ... 4.020
Radial Grid Type                 RadialGrid  ... OptM3 with GC (2021)
Angular Grid (max. ang.)         AngularGrid ... 2 (Lebedev-110)
Angular grid pruning method      GridPruning ... 4 (adaptive)
Weight generation scheme         WeightScheme... mBecke (2022)
Basis function cutoff            BFCut       ... 1.0000e-11
Integration weight cutoff        WCut        ... 1.0000e-14
Partially contracted basis set               ... on
Rotationally invariant grid construction     ... off
Angular grids for H and He will be reduced by one unit

Total number of grid points                  ...    61353
Total number of batches                      ...      508
Average number of points per batch           ...      120
Average number of grid points per atom       ...     1136
UseSFitting                                  ... on

GRIDX 3
-------
General Integration Accuracy     IntAcc      ... 4.338
Radial Grid Type                 RadialGrid  ... OptM3 with GC (2021)
Angular Grid (max. ang.)         AngularGrid ... 3 (Lebedev-194)
Angular grid pruning method      GridPruning ... 4 (adaptive)
Weight generation scheme         WeightScheme... mBecke (2022)
Basis function cutoff            BFCut       ... 1.0000e-11
Integration weight cutoff        WCut        ... 1.0000e-14
Partially contracted basis set               ... on
Rotationally invariant grid construction     ... off
Angular grids for H and He will be reduced by one unit

Total number of grid points                  ...   132830
Total number of batches                      ...     1065
Average number of points per batch           ...      124
Average number of grid points per atom       ...     2460
UseSFitting                                  ... on
Initializing property integral containers    ... done (  0.0 sec)

SHARK setup successfully completed in   3.6 seconds

Maximum memory used throughout the entire STARTUP-calculation: 69.1 MB


           ************************************************************
           *        Program running with 24 parallel MPI-processes    *
           *              working on a common directory               *
           ************************************************************
-------------------------------------------------------------------------------
                                 ORCA GUESS
                   Start orbitals & Density for SCF / CASSCF
-------------------------------------------------------------------------------

------------
SCF SETTINGS
------------
Hamiltonian:
 Density Functional     Method          .... DFT(GTOs)
 Exchange Functional    Exchange        .... WB97X-D3
 Correlation Functional Correlation     .... WB97X-D3
 Gradients option       PostSCFGGA      .... off
 Hybrid DFT is turned on
   Fraction HF Exchange ScalHFX         ....  0.195728
   Scaling of DF-GGA-X  ScalDFX         ....  0.000000
   Scaling of DF-GGA-C  ScalDFC         ....  1.000000
   Scaling of DF-LDA-C  ScalLDAC        ....  1.000000
   Perturbative correction              ....  0.000000
 Long-range corrected/Screened/Range-Separated Hybrid DFT is turned on
   Amount of maximum screened exact exchange              ....  0.804272
   Range separation parameter mu (erf(mu*r12)/r12)        ....  0.250000
 RI-approximation to the Coulomb term is turned on
   Number of AuxJ basis functions       .... 1468
   RIJ-COSX (HFX calculated with COS-X)).... on


General Settings:
 Integral files         IntName         .... input
 Hartree-Fock type      HFTyp           .... RHF
 Total Charge           Charge          ....    0
 Multiplicity           Mult            ....    1
 Number of Electrons    NEL             ....  170
 Basis Dimension        Dim             ....  477
 Nuclear Repulsion      ENuc            ....   2151.5529094070 Eh

Convergence Acceleration:
 AO-DIIS                CNVDIIS         .... on
   Start iteration      DIISMaxIt       ....    12
   Startup error        DIISStart       ....  0.200000
   # of expansion vecs  DIISMaxEq       ....     5
   Bias factor          DIISBfac        ....   1.050
   Max. coefficient     DIISMaxC        ....  10.000
 MO-DIIS                CNVKDIIS        .... off
 Trust-Rad. Augm. Hess. CNVTRAH         .... auto
   Auto Start mean grad. ratio tolernc. ....  1.125000
   Auto Start start iteration           ....    50
   Auto Start num. interpolation iter.  ....    10
   Max. Number of Micro iterations      ....    24
   Max. Number of Macro iterations      .... Maxiter - #DIIS iter
   Number of Davidson start vectors     ....     2
   Converg. threshold    (grad. norm)   ....   1.000e-05
   Grad. Scal. Fac. for Micro threshold ....   0.100
   Minimum threshold for Micro iter.    ....   1.000e-02
   NR start threshold (gradient norm)   ....   1.000e-04
   Initial trust radius                 ....   0.400
   Minimum AH scaling param. (alpha)    ....   1.000
   Maximum AH scaling param. (alpha)    .... 1000.000
   Quad. conv. algorithm                .... NR
   White noise on init. David. guess    .... on
   Maximum white noise                  ....   0.010
   Pseudo random numbers                .... off
   Inactive MOs                         .... canonical
   Orbital update algorithm             .... Taylor
   Preconditioner                       .... Diag
   Full preconditioner red. dimension   ....   250
 SOSCF                  CNVSOSCF        .... on
   Start iteration      SOSCFMaxIt      ....   150
   Startup grad/error   SOSCFStart      ....  0.003300
   Hessian update       SOSCFHessUp     .... L-BFGS
 Level Shifting         CNVShift        .... on
   Level shift para.    LevelShift      ....    0.2500
   Turn off err/grad.   ShiftErr        ....    0.0010
 Zerner damping         CNVZerner       .... off
 Static damping         CNVDamp         .... on
   Fraction old density DampFac         ....    0.7000
   Max. Damping (<1)    DampMax         ....    0.9800
   Min. Damping (>=0)   DampMin         ....    0.0000
   Turn off err/grad.   DampErr         ....    0.1000

SCF Procedure:
 Maximum # iterations   MaxIter         ....   125
 SCF integral mode      SCFMode         .... Direct
   Integral package                     .... SHARK and LIBINT hybrid scheme
 Reset frequency        DirectResetFreq ....    20
 Integral Threshold     Thresh          ....  2.500e-11 Eh
 Primitive CutOff       TCut            ....  2.500e-12 Eh

Convergence Tolerance:
 Convergence Check Mode ConvCheckMode   .... Total+1el-Energy
 Convergence forced     ConvForced      .... 0
 Energy Change          TolE            ....  1.000e-08 Eh
 1-El. energy change                    ....  1.000e-05 Eh
 Orbital Gradient       TolG            ....  1.000e-05
 Orbital Rotation angle TolX            ....  1.000e-05
 DIIS Error             TolErr          ....  5.000e-07

------------------------------
INITIAL GUESS: MODEL POTENTIAL
------------------------------
Loading Hartree-Fock densities                     ... done
Calculating cut-offs                               ... done
Initializing the effective Hamiltonian             ... done
Setting up the integral package (SHARK)            ... done
Starting the Coulomb interaction                   ... done (   0.6 sec)
Making the grid                                    ... done (   0.3 sec)
Mapping shells                                     ... done
Starting the XC term evaluation                    ... done (   0.1 sec)
  promolecular density results
     # of electrons  =    169.989749100
     EX              =   -128.448996034
     EC              =     -5.696110089
     EX+EC           =   -134.145106123
Transforming the Hamiltonian                       ... done (   0.0 sec)
Diagonalizing the Hamiltonian                      ... done (   0.0 sec)
Back transforming the eigenvectors                 ... done (   0.0 sec)
Now organizing SCF variables                       ... done
                      ------------------
                      INITIAL GUESS DONE (   1.1 sec)
                      ------------------
             **** ENERGY FILE WAS UPDATED (input.en.tmp) ****
Finished Guess after   1.5 sec
Maximum memory used throughout the entire GUESS-calculation: 44.1 MB


           ************************************************************
           *        Program running with 24 parallel MPI-processes    *
           *              working on a common directory               *
           ************************************************************

-------------------------------------------------------------------------------------------
                                      ORCA LEAN-SCF
                              memory conserving SCF solver
-------------------------------------------------------------------------------------------

----------------------------------------D-I-I-S--------------------------------------------
Iteration    Energy (Eh)           Delta-E    RMSDP     MaxDP     DIISErr   Damp  Time(sec)
-------------------------------------------------------------------------------------------
               ***  Starting incremental Fock matrix formation  ***
    1    -914.2995179562049088     0.00e+00  1.38e-03  5.13e-02  1.49e-01  0.700   6.0
    2    -914.5335882205818052    -2.34e-01  1.10e-03  5.09e-02  9.39e-02  0.700   2.8
                               ***Turning on AO-DIIS***
    3    -914.6609212471958017    -1.27e-01  5.91e-04  2.82e-02  5.33e-02  0.700   2.7
    4    -914.7371173509673099    -7.62e-02  1.25e-03  5.40e-02  3.35e-02  0.000   2.5
    5    -914.8983271208558108    -1.61e-01  1.10e-04  4.39e-03  4.55e-03  0.000   2.7
                              *** Initializing SOSCF ***
---------------------------------------S-O-S-C-F--------------------------------------
Iteration    Energy (Eh)           Delta-E    RMSDP     MaxDP     MaxGrad    Time(sec)
--------------------------------------------------------------------------------------
    6    -914.8986607739184365    -3.34e-04  5.38e-05  2.67e-03  1.97e-03     2.4
               *** Restarting incremental Fock matrix formation ***
    7    -914.8986263963747660     3.44e-05  3.49e-05  1.51e-03  6.33e-04     5.5
    8    -914.8986487219654009    -2.23e-05  3.64e-05  1.87e-03  3.24e-04     3.7
    9    -914.8986542655106859    -5.54e-06  1.22e-05  6.43e-04  8.80e-05     3.7
   10    -914.8986560480461776    -1.78e-06  2.79e-06  8.66e-05  5.62e-05     3.3
   11    -914.8986561263841395    -7.83e-08  1.03e-06  3.99e-05  2.52e-05     2.7
   12    -914.8986561578094552    -3.14e-08  4.26e-07  1.23e-05  8.93e-06     2.2
   13    -914.8986561516785514     6.13e-09  1.64e-07  5.91e-06  4.23e-06     2.0
                 **** Energy Check signals convergence ****

               *****************************************************
               *                     SUCCESS                       *
               *           SCF CONVERGED AFTER  13 CYCLES          *
               *****************************************************

Recomputing exchange energy using gridx3       ... done (    9.524 sec)
Old exchange energy                            :    -43.981922938 Eh
New exchange energy                            :    -43.981953211 Eh
Exchange energy change after final integration :     -0.000030273 Eh
Total energy after final integration           :   -914.898686424 Eh
             **** ENERGY FILE WAS UPDATED (input.en.tmp) ****

----------------
TOTAL SCF ENERGY
----------------

Total Energy       :       -914.89868642426745 Eh          -24895.65893 eV

Components:
Nuclear Repulsion  :       2151.55290940701479 Eh           58546.73112 eV
Electronic Energy  :      -3066.45156555869335 Eh          -83442.38923 eV
One Electron Energy:      -5513.27353720890187 Eh         -150023.80001 eV
Two Electron Energy:       2446.82197165020852 Eh           66581.41078 eV

Virial components:
Potential Energy   :      -1823.32028413728290 Eh          -49615.06731 eV
Kinetic Energy     :        908.42159771301544 Eh           24719.40838 eV
Virial Ratio       :          2.00713004702614

DFT components:
N(Alpha)           :       85.000016439282 electrons
N(Beta)            :       85.000016439282 electrons
N(Total)           :      170.000032878563 electrons
E(XC)              :      -94.079946326281 Eh       

---------------
SCF CONVERGENCE
---------------

  Last Energy change         ...   -6.1309e-09  Tolerance :   1.0000e-08
  Last MAX-Density change    ...    5.9056e-06  Tolerance :   1.0000e-07
  Last RMS-Density change    ...    1.6432e-07  Tolerance :   5.0000e-09
  Last DIIS Error            ...    1.9715e-03  Tolerance :   5.0000e-07
  Last Orbital Gradient      ...    4.2273e-06  Tolerance :   1.0000e-05
  Last Orbital Rotation      ...    8.9889e-06  Tolerance :   1.0000e-05


----------------
ORBITAL ENERGIES
----------------

  NO   OCC          E(Eh)            E(eV) 
   0   2.0000     -14.542288      -395.7158 
   1   2.0000     -14.453138      -393.2899 
   2   2.0000     -10.368156      -282.1319 
   3   2.0000     -10.364547      -282.0337 
   4   2.0000     -10.325141      -280.9614 
   5   2.0000     -10.301981      -280.3311 
   6   2.0000     -10.300985      -280.3040 
   7   2.0000     -10.300774      -280.2983 
   8   2.0000     -10.300681      -280.2958 
   9   2.0000     -10.299344      -280.2594 
  10   2.0000     -10.297842      -280.2185 
  11   2.0000     -10.293172      -280.0914 
  12   2.0000     -10.289705      -279.9971 
  13   2.0000     -10.284305      -279.8502 
  14   2.0000     -10.280516      -279.7471 
  15   2.0000     -10.277922      -279.6765 
  16   2.0000     -10.277570      -279.6669 
  17   2.0000     -10.268907      -279.4312 
  18   2.0000     -10.260329      -279.1977 
  19   2.0000     -10.250086      -278.9190 
  20   2.0000     -10.243890      -278.7504 
  21   2.0000     -10.237669      -278.5811 
  22   2.0000      -6.729421      -183.1169 
  23   2.0000      -1.117676       -30.4135 
  24   2.0000      -1.068922       -29.0868 
  25   2.0000      -0.971330       -26.4312 
  26   2.0000      -0.958760       -26.0892 
  27   2.0000      -0.943700       -25.6794 
  28   2.0000      -0.889850       -24.2140 
  29   2.0000      -0.886850       -24.1324 
  30   2.0000      -0.854219       -23.2445 
  31   2.0000      -0.845315       -23.0022 
  32   2.0000      -0.828705       -22.5502 
  33   2.0000      -0.819170       -22.2907 
  34   2.0000      -0.809028       -22.0148 
  35   2.0000      -0.801702       -21.8154 
  36   2.0000      -0.773176       -21.0392 
  37   2.0000      -0.748001       -20.3541 
  38   2.0000      -0.717852       -19.5337 
  39   2.0000      -0.712893       -19.3988 
  40   2.0000      -0.700980       -19.0746 
  41   2.0000      -0.673684       -18.3319 
  42   2.0000      -0.649113       -17.6633 
  43   2.0000      -0.633069       -17.2267 
  44   2.0000      -0.623971       -16.9791 
  45   2.0000      -0.611869       -16.6498 
  46   2.0000      -0.606388       -16.5007 
  47   2.0000      -0.600073       -16.3288 
  48   2.0000      -0.590896       -16.0791 
  49   2.0000      -0.579661       -15.7734 
  50   2.0000      -0.564019       -15.3477 
[...]
139:   3106.41   0.002868   14.49  0.000288  ( 0.005007  0.005494 -0.015260)
140:   3111.57   0.004986   25.20  0.000500  ( 0.017003  0.013311  0.005806)
141:   3130.90   0.004308   21.77  0.000429  (-0.016946  0.011743 -0.002085)
142:   3134.32   0.003387   17.12  0.000337  ( 0.000708  0.004309  0.017838)
143:   3145.44   0.004595   23.22  0.000456  (-0.012668 -0.017025  0.002358)
144:   3163.56   0.001241    6.27  0.000122  ( 0.008105  0.002704  0.007028)
145:   3171.39   0.099666  503.67  0.009807  (-0.051911 -0.083605 -0.011069)
146:   3175.55   0.001840    9.30  0.000181  (-0.001266  0.010382 -0.008450)
147:   3176.95   0.005854   29.58  0.000575  (-0.002482 -0.023534  0.003876)
148:   3178.78   0.004427   22.37  0.000435  (-0.004417  0.019927  0.004240)
149:   3183.51   0.004149   20.97  0.000407  ( 0.001004 -0.004226  0.019695)
150:   3188.85   0.004458   22.53  0.000436  (-0.008066  0.018697  0.004654)
151:   3203.31   0.000589    2.98  0.000057  (-0.007214  0.002306 -0.000034)
152:   3208.53   0.000707    3.57  0.000069  ( 0.004238 -0.006858 -0.001937)
153:   3213.06   0.002716   13.72  0.000264  ( 0.011507  0.011105  0.002837)
154:   3214.22   0.001955    9.88  0.000190  (-0.006736  0.004571 -0.011115)
155:   3224.56   0.001986   10.04  0.000192  ( 0.012876  0.003872  0.003374)
156:   3234.06   0.007331   37.05  0.000707  (-0.020727  0.015594  0.005886)
157:   3236.80   0.002685   13.57  0.000259  ( 0.012677  0.009900  0.000412)
158:   3252.63   0.002975   15.03  0.000285  (-0.004858 -0.012755  0.009956)
159:   3269.22   0.001591    8.04  0.000152  (-0.008018 -0.001063  0.009300)
160:   3276.32   0.001281    6.47  0.000122  ( 0.008120  0.007014  0.002624)
161:   3289.88   0.001780    8.99  0.000169  ( 0.004843 -0.012056  0.000172)

* The epsilon (eps) is given for a Dirac delta lineshape.
** The dipole moment derivative (T) already includes vibrational overlap.

The first frequency considered to be a vibration is 6
The total number of vibrations considered is 156


--------------------------
THERMOCHEMISTRY AT 298.15K
--------------------------

Temperature         ...   298.15 K
Pressure            ...     1.00 atm
Total Mass          ...   310.29 AMU
Quasi RRHO          ...     True
Cut-Off Frequency   ...     1.00 cm^-1

Throughout the following assumptions are being made:
  (1) The electronic state is orbitally nondegenerate
  (2) There are no thermally accessible electronically excited states
  (3) Hindered rotations indicated by low frequency modes are not
      treated as such but are treated as vibrations and this may
      cause some error
  (4) All equations used are the standard statistical mechanics
      equations for an ideal gas
  (5) All vibrations are strictly harmonic

freq.      27.32  E(vib)   ...       0.55 
freq.      64.95  E(vib)   ...       0.50 
freq.      72.48  E(vib)   ...       0.49 
freq.      81.65  E(vib)   ...       0.48 
freq.      99.20  E(vib)   ...       0.46 
freq.     105.59  E(vib)   ...       0.45 
freq.     117.57  E(vib)   ...       0.44 
freq.     131.53  E(vib)   ...       0.42 
freq.     152.16  E(vib)   ...       0.40 
freq.     170.70  E(vib)   ...       0.38 
freq.     192.74  E(vib)   ...       0.36 
freq.     208.53  E(vib)   ...       0.34 
freq.     231.82  E(vib)   ...       0.32 
freq.     240.15  E(vib)   ...       0.31 
freq.     252.42  E(vib)   ...       0.30 
freq.     271.72  E(vib)   ...       0.29 
freq.     289.78  E(vib)   ...       0.27 
freq.     291.71  E(vib)   ...       0.27 
freq.     300.55  E(vib)   ...       0.26 
freq.     309.28  E(vib)   ...       0.26 
freq.     320.36  E(vib)   ...       0.25 
freq.     323.70  E(vib)   ...       0.25 
freq.     353.32  E(vib)   ...       0.22 
freq.     359.96  E(vib)   ...       0.22 
freq.     370.28  E(vib)   ...       0.21 
freq.     399.38  E(vib)   ...       0.19 
freq.     404.45  E(vib)   ...       0.19 
freq.     413.28  E(vib)   ...       0.19 
freq.     447.23  E(vib)   ...       0.17 
freq.     468.57  E(vib)   ...       0.16 
freq.     487.61  E(vib)   ...       0.15 
freq.     498.10  E(vib)   ...       0.14 
freq.     519.51  E(vib)   ...       0.13 
freq.     563.34  E(vib)   ...       0.11 
freq.     565.66  E(vib)   ...       0.11 
freq.     577.32  E(vib)   ...       0.11 
freq.     624.05  E(vib)   ...       0.09 
freq.     635.04  E(vib)   ...       0.09 
freq.     654.50  E(vib)   ...       0.08 
freq.     700.88  E(vib)   ...       0.07 
freq.     716.22  E(vib)   ...       0.07 
freq.     728.81  E(vib)   ...       0.06 
freq.     746.22  E(vib)   ...       0.06 
freq.     750.19  E(vib)   ...       0.06 
freq.     765.77  E(vib)   ...       0.06 
freq.     776.75  E(vib)   ...       0.05 
freq.     802.39  E(vib)   ...       0.05 
freq.     811.33  E(vib)   ...       0.05 
freq.     811.98  E(vib)   ...       0.05 
freq.     835.33  E(vib)   ...       0.04 
freq.     868.10  E(vib)   ...       0.04 
freq.     875.19  E(vib)   ...       0.04 
freq.     886.39  E(vib)   ...       0.04 
freq.     909.10  E(vib)   ...       0.03 
freq.     911.14  E(vib)   ...       0.03 
freq.     922.60  E(vib)   ...       0.03 
freq.     925.24  E(vib)   ...       0.03 
freq.     952.95  E(vib)   ...       0.03 
freq.     962.66  E(vib)   ...       0.03 
freq.     983.70  E(vib)   ...       0.02 
freq.     987.36  E(vib)   ...       0.02 
freq.    1003.44  E(vib)   ...       0.02 
freq.    1006.45  E(vib)   ...       0.02 
freq.    1012.70  E(vib)   ...       0.02 
freq.    1024.87  E(vib)   ...       0.02 
freq.    1027.17  E(vib)   ...       0.02 
freq.    1028.37  E(vib)   ...       0.02 
freq.    1036.01  E(vib)   ...       0.02 
freq.    1079.98  E(vib)   ...       0.02 
freq.    1085.11  E(vib)   ...       0.02 
freq.    1089.44  E(vib)   ...       0.02 
freq.    1094.20  E(vib)   ...       0.02 
freq.    1100.96  E(vib)   ...       0.02 
freq.    1112.33  E(vib)   ...       0.01 
freq.    1119.25  E(vib)   ...       0.01 
freq.    1130.83  E(vib)   ...       0.01 
freq.    1154.74  E(vib)   ...       0.01 
freq.    1158.31  E(vib)   ...       0.01 
freq.    1161.77  E(vib)   ...       0.01 
freq.    1188.40  E(vib)   ...       0.01 
freq.    1193.71  E(vib)   ...       0.01 
freq.    1198.10  E(vib)   ...       0.01 
freq.    1217.40  E(vib)   ...       0.01 
freq.    1223.78  E(vib)   ...       0.01 
freq.    1248.88  E(vib)   ...       0.01 
freq.    1251.14  E(vib)   ...       0.01 
freq.    1259.71  E(vib)   ...       0.01 
freq.    1267.41  E(vib)   ...       0.01 
freq.    1280.12  E(vib)   ...       0.01 
freq.    1289.07  E(vib)   ...       0.01 
freq.    1303.20  E(vib)   ...       0.01 
freq.    1322.91  E(vib)   ...       0.01 
freq.    1354.20  E(vib)   ...       0.01 
freq.    1355.31  E(vib)   ...       0.01 
freq.    1386.22  E(vib)   ...       0.00 
freq.    1404.47  E(vib)   ...       0.00 
freq.    1415.22  E(vib)   ...       0.00 
freq.    1419.98  E(vib)   ...       0.00 
freq.    1424.80  E(vib)   ...       0.00 
freq.    1436.19  E(vib)   ...       0.00 
freq.    1445.73  E(vib)   ...       0.00 
freq.    1452.26  E(vib)   ...       0.00 
freq.    1456.66  E(vib)   ...       0.00 
freq.    1471.76  E(vib)   ...       0.00 
freq.    1480.82  E(vib)   ...       0.00 
freq.    1484.41  E(vib)   ...       0.00 
freq.    1488.09  E(vib)   ...       0.00 
freq.    1493.89  E(vib)   ...       0.00 
freq.    1495.41  E(vib)   ...       0.00 
freq.    1496.70  E(vib)   ...       0.00 
freq.    1499.21  E(vib)   ...       0.00 
freq.    1503.14  E(vib)   ...       0.00 
freq.    1511.89  E(vib)   ...       0.00 
freq.    1513.17  E(vib)   ...       0.00 
freq.    1518.94  E(vib)   ...       0.00 
freq.    1520.92  E(vib)   ...       0.00 
freq.    1527.21  E(vib)   ...       0.00 
freq.    1533.90  E(vib)   ...       0.00 
freq.    1536.22  E(vib)   ...       0.00 
freq.    1541.83  E(vib)   ...       0.00 
freq.    1544.34  E(vib)   ...       0.00 
freq.    1551.55  E(vib)   ...       0.00 
freq.    1599.47  E(vib)   ...       0.00 
freq.    1655.14  E(vib)   ...       0.00 
freq.    1689.85  E(vib)   ...       0.00 
freq.    2415.86  E(vib)   ...       0.00 
freq.    2441.52  E(vib)   ...       0.00 
freq.    3073.22  E(vib)   ...       0.00 
freq.    3080.16  E(vib)   ...       0.00 
freq.    3080.31  E(vib)   ...       0.00 
freq.    3089.40  E(vib)   ...       0.00 
freq.    3093.86  E(vib)   ...       0.00 
freq.    3094.95  E(vib)   ...       0.00 
freq.    3106.41  E(vib)   ...       0.00 
freq.    3111.57  E(vib)   ...       0.00 
freq.    3130.90  E(vib)   ...       0.00 
freq.    3134.32  E(vib)   ...       0.00 
freq.    3145.44  E(vib)   ...       0.00 
freq.    3163.56  E(vib)   ...       0.00 
freq.    3171.39  E(vib)   ...       0.00 
freq.    3175.55  E(vib)   ...       0.00 
freq.    3176.95  E(vib)   ...       0.00 
freq.    3178.78  E(vib)   ...       0.00 
freq.    3183.51  E(vib)   ...       0.00 
freq.    3188.85  E(vib)   ...       0.00 
freq.    3203.31  E(vib)   ...       0.00 
freq.    3208.53  E(vib)   ...       0.00 
freq.    3213.06  E(vib)   ...       0.00 
freq.    3214.22  E(vib)   ...       0.00 
freq.    3224.56  E(vib)   ...       0.00 
freq.    3234.06  E(vib)   ...       0.00 
freq.    3236.80  E(vib)   ...       0.00 
freq.    3252.63  E(vib)   ...       0.00 
freq.    3269.22  E(vib)   ...       0.00 
freq.    3276.32  E(vib)   ...       0.00 
freq.    3289.88  E(vib)   ...       0.00 

------------
INNER ENERGY
------------

The inner energy is: U= E(el) + E(ZPE) + E(vib) + E(rot) + E(trans)
    E(el)   - is the total energy from the electronic structure calculation
              = E(kin-el) + E(nuc-el) + E(el-el) + E(nuc-nuc)
    E(ZPE)  - the the zero temperature vibrational energy from the frequency calculation
    E(vib)  - the the finite temperature correction to E(ZPE) due to population
              of excited vibrational states
    E(rot)  - is the rotational thermal energy
    E(trans)- is the translational thermal energy

Summary of contributions to the inner energy U:
Electronic energy                ...   -914.94221371 Eh
Zero point energy                ...      0.48517135 Eh     304.45 kcal/mol
Thermal vibrational correction   ...      0.01936030 Eh      12.15 kcal/mol
Thermal rotational correction    ...      0.00141627 Eh       0.89 kcal/mol
Thermal translational correction ...      0.00141627 Eh       0.89 kcal/mol
-----------------------------------------------------------------------
Total thermal energy                   -914.43484952 Eh


Summary of corrections to the electronic energy:
(perhaps to be used in another calculation)
Total thermal correction                  0.02219285 Eh      13.93 kcal/mol
Non-thermal (ZPE) correction              0.48517135 Eh     304.45 kcal/mol
-----------------------------------------------------------------------
Total correction                          0.50736419 Eh     318.38 kcal/mol


--------
ENTHALPY
--------

The enthalpy is H = U + kB*T
                kB is Boltzmann's constant
Total thermal energy              ...   -914.43484952 Eh 
Thermal Enthalpy correction       ...      0.00094421 Eh       0.59 kcal/mol
-----------------------------------------------------------------------
Total Enthalpy                    ...   -914.43390531 Eh


Note: Only C1 symmetry has been detected, increase convergence thresholds 
      if your molecule has a higher symmetry. Symmetry factor of 1.0 is   
      used for the rotational entropy correction. 
 

Note: Rotational entropy computed according to Herzberg 
Infrared and Raman Spectra, Chapter V,1, Van Nostrand Reinhold, 1945 
Point Group:  C1, Symmetry Number:   1  
Rotational constants in cm-1:     0.010887     0.009625     0.007017 

Vibrational entropy computed according to the QRRHO of S. Grimme
Chem.Eur.J. 2012 18 9955 using a reference frequency of 100.0 cm-1


-------
ENTROPY
-------

The entropy contributions are T*S = T*(S(el)+S(vib)+S(rot)+S(trans))
     S(el)   - electronic entropy
     S(vib)  - vibrational entropy
     S(rot)  - rotational entropy
     S(trans)- translational entropy
The entropies will be listed as multiplied by the temperature to get
units of energy

Electronic entropy                ...      0.00000000 Eh      0.00 kcal/mol
Vibrational entropy               ...      0.03303000 Eh     20.73 kcal/mol
Rotational entropy                ...      0.01617811 Eh     10.15 kcal/mol
Translational entropy             ...      0.02047495 Eh     12.85 kcal/mol
-----------------------------------------------------------------------
Final entropy term                ...      0.06968306 Eh     43.73 kcal/mol

In case the symmetry of your molecule has not been determined correctly
or in case you have a reason to use a different symmetry number we print 
out the resulting rotational entropy values for sn=1,12:

 non-linear molecules -----------------------------------
|  sn= 1 | S(rot)=       0.01617811 Eh     10.15 kcal/mol|
|  sn= 2 | S(rot)=       0.01552365 Eh      9.74 kcal/mol|
|  sn= 3 | S(rot)=       0.01514082 Eh      9.50 kcal/mol|
|  sn= 4 | S(rot)=       0.01486919 Eh      9.33 kcal/mol|
|  sn= 5 | S(rot)=       0.01465851 Eh      9.20 kcal/mol|
|  sn= 6 | S(rot)=       0.01448636 Eh      9.09 kcal/mol|
|  sn= 7 | S(rot)=       0.01434082 Eh      9.00 kcal/mol|
|  sn= 8 | S(rot)=       0.01421474 Eh      8.92 kcal/mol|
|  sn= 9 | S(rot)=       0.01410353 Eh      8.85 kcal/mol|
|  sn=10 | S(rot)=       0.01400405 Eh      8.79 kcal/mol|
|  sn=11 | S(rot)=       0.01391406 Eh      8.73 kcal/mol|
|  sn=12 | S(rot)=       0.01383191 Eh      8.68 kcal/mol|
 linear molecules ---------------------------------------
|  Dinfh | S(rot)=       0.01000840 Eh      6.28 kcal/mol|
|  Cinfv | S(rot)=       0.01066285 Eh      6.69 kcal/mol|
 --------------------------------------------------------


-------------------
GIBBS FREE ENERGY
-------------------

The Gibbs free energy is G = H - T*S

Total enthalpy                    ...   -914.43390531 Eh 
Total entropy correction          ...     -0.06968306 Eh    -43.73 kcal/mol
-----------------------------------------------------------------------
Final Gibbs free energy         ...   -914.50358837 Eh

For completeness - the Gibbs free energy minus the electronic energy
G-E(el)                           ...      0.43862534 Eh    275.24 kcal/mol


Maximum memory used throughout the entire PROP-calculation: 392.2 MB

--------------------------------
SUGGESTED CITATIONS FOR THIS RUN
--------------------------------

Below you find a list of papers that are relevant to this ORCA run
We neither can nor want to force you to cite these papers, but we appreciate if you do
You receive ORCA, which is the product of decades of hard work by many enthusiastic individuals, for free
The only thing we kindly ask in return is that you cite our papers,
We deeply appreciate it, if you show your appreciation for ORCA by not just citing the generic ORCA reference.

Please note that relegating all ORCA citations to the supporting information does *not* help us.
SI sections are not indexed - citations you put there will not count into any citation statistics
But we need these citations in order to attract the funding resources that allow us to do what we are doing

Therefore, if you are a happy ORCA user, please consider citing a few of the papers listed below in the main body of your paper

In addition to the list printed below, the program has created the file input.bibtex that contains the list in bibtex format
You can import this file easily into all common literature databanks and citation aid programs


List of essential papers. We consider these as the minimum necessary citations

  1. Neese,F.
     Software update: the ORCA program system, version 5.0
     WIRES Comput. Molec. Sci., 2022 12(1)e1606
     doi.org/10.1002/wcms.1606

List of papers to cite with high priority. The work reported in these papers was absolutely
necessary for this run to complete.
Our perspective: the developers of density functionals and basis sets usually get cited in chemistry papers
Good! But without the algorithms to do something with them, the functionals or basis sets would not do anything.
Hence, in our opinion, the algorithm design and method developments papers are equally worthy of getting cited

  1. Neese,F.
     An improvement of the resolution of the identity approximation for the formation of the Coulomb matrix
     J. Comp. Chem., 2003 24(14)1740-1747
     doi.org/10.1002/jcc.10318
  2. Neese,F.; Wennmohs,F.; Hansen,A.; Becker,U.
     Efficient, approximate and parallel Hartree-Fock and hybrid DFT calculations. A 'chain-of-spheres' algorithm for the Hartree-Fock exchange
     Chem. Phys., 2009 356(1-3)98-109
     doi.org/10.1016/j.chemphys.2008.10.036
  3. Bykov,D.; Petrenko,T.; Izsak,R.; Kossmann,S.; Becker,U.; Valeev,E.; Neese,F.
     Efficient implementation of the analytic second derivatives of Hartree-Fock and hybrid DFT energies: a detailed analysis of different approximations
     Molec. Phys., 2015 113 1961-1977
     doi.org/10.1080/00268976.2015.1025114
  4. Helmich-Paris,B.; de Souza,B.; Neese,F.; Izsák,R.
     An improved chain of spheres for exchange algorithm
     J. Chem. Phys., 2021 155 104109
     doi.org/doi: 10.1063/5.0058766.
  5. Neese,F.
     The SHARK Integral Generation and Digestion System
     J. Comp. Chem., 2022  1-16
     doi.org/10.1002/jcc.26942
  6. Grimme,S.; Antony,J.; Ehrlich,S.; Krieg,H.
     A consistent and accurate ab initio parametrization of density functional dispersion correction (DFT-D) for the 94 elements H-Pu
     J. Chem. Phys., 2010 132 154104
     doi.org/10.1063/1.3382344

List of suggested additional citations. These are papers that are important in the 'surrounding' of 
of this run, or papers that preceded the highly important papers. If you like your results we are grateful for a citation.

  1. Izsak,R.; Neese,F.
     An overlap fitted chain of spheres exchange method
     J. Chem. Phys., 2011 135 144105
     doi.org/10.1063/1.3646921
  2. Izsak,R.; Hansen,A.; Neese,F.
     The resolution of identity and chain of spheres approximations for the LPNO-CCSD singles Fock term
     Molec. Phys., 2012 110 2413-2417
     doi.org/10.1080/00268976.2012.687466
  3. Neese,F.
     The ORCA program system
     WIRES Comput. Molec. Sci., 2012 2(1)73-78
     doi.org/10.1002/wcms.81
  4. Izsak,R.; Neese,F.; Klopper,W.
     Robust fitting techniques in the chain of spheres approximation to the Fock exchange: The role of the complementary space
     J. Chem. Phys., 2013 139 
     doi.org/10.1063/1.4819264
  5. Neese,F.
     Software update: the ORCA program system, version 4.0
     WIRES Comput. Molec. Sci., 2018 8(1)1-6
     doi.org/10.1002/wcms.1327
  6. Neese,F.; Wennmohs,F.; Becker,U.; Riplinger,C.
     The ORCA quantum chemistry program package
     J. Chem. Phys., 2020 152 Art. No. L224108
     doi.org/10.1063/5.0004608

List of optional additional citations

  1. Neese,F.
     Approximate second-order SCF convergence for spin unrestricted wavefunctions
     Chem. Phys. Lett., 2000 325(1-3)93-98
     doi.org/10.1016/s0009-2614(00)00662-x

Timings for individual modules:

Sum of individual times          ...     1174.611 sec (=  19.577 min)
Startup calculation              ...       42.476 sec (=   0.708 min)   3.6 %
SCF iterations                   ...      412.846 sec (=   6.881 min)  35.1 %
Property integrals               ...      138.768 sec (=   2.313 min)  11.8 %
SCF Response                     ...      224.108 sec (=   3.735 min)  19.1 %
Property calculations            ...      212.478 sec (=   3.541 min)  18.1 %
SCF Gradient evaluation          ...      143.407 sec (=   2.390 min)  12.2 %
Geometry relaxation              ...        0.527 sec (=   0.009 min)   0.0 %
                             ****ORCA TERMINATED NORMALLY****
TOTAL RUN TIME: 0 days 0 hours 29 minutes 53 seconds 760 msec
