
                                 *****************
                                 * O   R   C   A *
                                 *****************

                                            #,                                       
                                            ###                                      
                                            ####                                     
                                            #####                                    
                                            ######                                   
                                           ########,                                 
                                     ,,################,,,,,                         
                               ,,#################################,,                 
                          ,,##########################################,,             
                       ,#########################################, ''#####,          
                    ,#############################################,,   '####,        
                  ,##################################################,,,,####,       
                ,###########''''           ''''###############################       
              ,#####''   ,,,,##########,,,,          '''####'''          '####       
            ,##' ,,,,###########################,,,                        '##       
           ' ,,###''''                  '''############,,,                           
         ,,##''                                '''############,,,,        ,,,,,,###''
      ,#''                                            '''#######################'''  
     '                                                          ''''####''''         
             ,#######,   #######,   ,#######,      ##                                
            ,#'     '#,  ##    ##  ,#'     '#,    #''#        ,####,    ,#,          
            ##       ##  ##   ,#'  ##            #'  '#       #'       ,# #          
            ##       ##  #######   ##           ,######,      #####,      #          
            '#,     ,#'  ##    ##  '#,     ,#' ,#      #,     #,   #      #          
             '#######'   ##     ##  '#######'  #'      '#     '####' #    #          



                #########################################################
                #                        -***-                          #
                #          Department of theory and spectroscopy        #
                #                                                       #
                #                      Frank Neese                      #
                #                                                       #
                #     Directorship, Architecture, Infrastructure        #
                #                    SHARK, DRIVERS                     #
                #        Core code/Algorithms in most modules           #
                #                                                       #
                #        Max Planck Institute fuer Kohlenforschung      #
                #                Kaiser Wilhelm Platz 1                 #
                #                 D-45470 Muelheim/Ruhr                 #
                #                      Germany                          #
                #                                                       #
                #                  All rights reserved                  #
                #                        -***-                          #
                #########################################################


                         Program Version 6.1.0  -  RELEASE   -
                                (GIT: $679e74b7b5$)
                          ($2025-06-10 18:02:51 +0200$)


 With contributions from (in alphabetic order):
[Max-Planck-Institut fuer Kohlenforschung]                               
  Daniel Aravena         : Magnetic Suceptibility                        
  Michael Atanasov       : Ab Initio Ligand Field Theory (pilot matlab implementation)
  Alexander A. Auer      : GIAO ZORA, VPT2 properties, NMR spectrum      
  Ute Becker             : All parallelization in ORCA, NUMFREQ, NUMCALC 
  Giovanni Bistoni       : ED, misc. LED, open-shell LED, HFLD           
  Dmytro Bykov           : pre 5.0 version of the SCF Hessian            
  Marcos Casanova-Páez   : Triplet and SCS-CIS(D). UHF-(DLPNO)-IP/EA/STEOM-CCSD. UHF-CVS-IP/STEOM-CCSD   
  Vijay G. Chilkuri      : MRCI spin determinant printing, contributions to CSF-ICE 
  Pauline Colinet        : FMM embedding                                 
  Dipayan Datta          : RHF DLPNO-CCSD density                        
  Achintya Kumar Dutta   : EOM-CC, STEOM-CC                              
  Nicolas Foglia         : Exact transition moments, OPA infrastructure, MCD improvements    
  Dmitry Ganyushin       : Spin-Orbit,Spin-Spin,Magnetic field MRCI      
  Miquel Garcia-Rates    : C-PCM and meta-GGA Hessian, CCSD/C-PCM, Gaussian charge scheme 
  Tiago L. C. Gouveia    : GS-ROHF, GS-ROCIS                             
  Yang Guo               : DLPNO-NEVPT2, F12-NEVPT2, CIM, IAO-localization        
  Andreas Hansen         : Spin unrestricted coupled pair/coupled cluster methods 
  Ingolf Harden          : AUTO-CI MPn and infrastructure                
  Benjamin Helmich-Paris : MC-RPA, TRAH-(SCF,CASSCF), AVAS, COSX integrals, SCF dyn. polar., MC-PDFT, srDFT 
  Lee Huntington         : MR-EOM, pCC                                   
  Robert Izsak           : Overlap fitted RIJCOSX, COSX-SCS-MP3, EOM     
  Riya Kayal             : Wick's Theorem for AUTO-CI, AUTO-CI UHF-CCSDT 
  Emily Kempfer          : AUTO-CI RHF CISDT and CCSDT, approximate NEVPT4
  Christian Kollmar      : KDIIS, OOCD, Brueckner-CCSD(T), CCSD density, CASPT2, CASPT2-K, improved NEVPT2 
  Axel Koslowski         : Symmetry handling                             
  Simone Kossmann        : meta-GGA functionals, TD-DFT gradient, OOMP2, (MP2 Hessian; deprecated post 5.0) 
  Lucas Lang             : DCDCAS, Hyperfine gauge corrections, ICE-SOC+SSC
  Marvin Lechner         : AUTO-CI (C++ implementation), FIC-MRCC        
  Spencer Leger          : CASSCF response                               
  Dagmar Lenk            : GEPOL surface, SMD, ORCA-2-JSON               
  Dimitrios Liakos       : Extrapolation schemes; Compound Job, Property file
  Dimitrios Manganas     : Further ROCIS development; embedding schemes. LFT, Crystal Embedding 
  Dimitrios Pantazis     : SARC Basis sets                               
  Anastasios Papadopoulos: AUTO-CI, single reference methods and gradients 
  Taras Petrenko         : pre 6.0 DFT Hessian and TD-DFT gradient,  ECA, NRVS 
  Petra Pikulova         : Analytic Raman intensities                    
  Peter Pinski           : DLPNO-MP2, DLPNO-MP2 Gradient                 
  Shashank Vittal Rao    : ES-AILFT, MagRelax                            
  Christoph Reimann      : Effective Core Potentials                     
  Marius Retegan         : Local ZFS, SOC                                
  Christoph Riplinger    : Optimizer, TS searches, QM/MM, DLPNO-CCSD(T), (RO)-DLPNO pert. Triples 
  Michael Roemelt        : Original ROCIS implementation, recursive CI coupling coefficients
  Masaaki Saitow         : Open-shell DLPNO-CCSD energy and density      
  Barbara Sandhoefer     : DKH picture change effects                    
  Yorick L. A. Schmerwitz: GMF and freeze-and-release deltaSCF, NEB S-IDPP initial path                    
  Kantharuban Sivalingam : CASSCF convergence/infrastructure, NEVPT2, NEVPT3, NEVPT4(SD), FIC-MRCI and CEPA variants
  Bernardo de Souza      : ESD, SOC TD-DFT                               
  Georgi L. Stoychev     : AutoAux, RI-MP2 NMR, DLPNO-MP2 response, X2C  
  Van Anh Tran           : RI-MP2 g-tensors                              
  Willem Van den Heuvel  : Paramagnetic NMR                              
  Zikuan Wang            : NOTCH, Electric field optimization            
  Frank Wennmohs         : Technical directorship and infrastructure     
  Hang Xu                : AUTO-CI-Response properties                   
                                                                         
[FACCTs GmbH]                                                            
  Markus Bursch, Nicolas Foglia, Miquel Garcia-Rates, Ingolf Harden, Hagen Neugebauer, Anastasios Papadopoulos, 
  Christoph Riplinger, Bernardo de Souza, Georgi L. Stoychev                                                    
                                                                 
  APM, various basis sets, CI-OPT, improved COSX, DLPNO-Multilevel,           
  DOCKER, DRACO, updates on ESD, Fragmentator, GOAT, IRC, LR-CPCM, L-BFGS, MBIS, meta-GGA TD-DFT gradient, ML-optimized integration grids, 
  MM, NACMEs, nearIR, NEB, NEB-TS, NL-DFT gradient (VV10), 2- and 3-layer-ONIOM, interface openCOSMO-RS, QMMM,   
  Crystal-QMMM, RESP, rigid body optimization, SF, symmetry and pop. for TD-DFT, various functionals, SOLVATOR                                   
                                                                         
[Other institutions]                                                     
  V. Asgeirsson          : NEB                                           
  Christoph Bannwarth    : sTDA-DFT, sTD-DFT, PBEh-3c, B97-3c, D3        
  Giovanni Bistoni       : ETS/NOCV, ADLD/ADEX, COVALED                  
  Martin Brehm           : Molecular dynamics                            
  Ronald Cardenas        : ETS/NOCV                                      
  Martina Colucci        : COVALED                                       
  Sebastian Ehlert       : rSCAN, r2SCAN, r2SCAN-3c, D4, dhf basis sets  
  Marvin Friede          : D4 for Fr, Ra, Ac-Lr                          
  Lars Goerigk           : TD-DFT with DH, B97 family of functionals     
  Stefan Grimme          : VdW corrections, initial TS optimization, DFT functionals, gCP, sTDA/sTD-DF 
  Waldemar Hujo          : DFT-NL                                        
  H. Jonsson             : NEB                                           
  Holger Kruse           : gCP                                           
  Marcel Mueller         : wB97X-3c, vDZP basis set                      
  Hagen Neugebauer       : wr2SCAN, Native XTB                           
  Gianluca Regni         : ADLD/ADEX                                     
  Tobias Risthaus        : pre 6.0 range-separated hybrid DFT and stability analysis
  Lukas Wittmann         : regularized MP2, r2SCAN double-hybrids, wr2SCAN        
                                                                         
We gratefully acknowledge several colleagues who have allowed us to      
interface, adapt or use parts of their codes:                            
  Ed Valeev, F. Pavosevic, A. Kumar             : LibInt (2-el integral package), F12 methods 
  Garnet Chan, S. Sharma, J. Yang, R. Olivares  : DMRG                   
  Ulf Ekstrom                                   : XCFun DFT Library      
  Mihaly Kallay                                 : mrcc  (arbitrary order and MRCC methods)
  Frank Weinhold                                : gennbo (NPA and NBO analysis)           
  Simon Mueller                                 : openCOSMO-RS                            
  Christopher J. Cramer and Donald G. Truhlar   : smd solvation model                     
  S Lehtola, MJT Oliveira, MAL Marques          : LibXC Library                           
  Liviu Ungur et al                             : ANISO software                          


 Your calculation uses the libint2 library for the computation of 2-el integrals
 For citations please refer to: http://libint.valeyev.net

 Your ORCA version has been built with support for libXC version: 7.0.0
 For citations please refer to: https://libxc.gitlab.io

 This ORCA versions uses:
   CBLAS   interface :  Fast vector & matrix operations
   LAPACKE interface :  Fast linear algebra routines
   SCALAPACK package :  Parallel linear algebra routines
   Shared memory     :  Shared parallel matrices


  ***********************************
  * Starting time: Sun Aug 31 21:35:31 2025
  * Host name:     Jacobs-MacBook-Pro.local
  * Process ID:    52790
  * Working dir.:  /Users/jacobmolinnielsen/Developer/FrustActivationProject/FRUST/dev/_e0ifd0
  ***********************************

NOTE: MaxCore=20480 MB was set to SCF,MP2,MDCI,CIPSI,MRCI,RASCI and CIS
      => If you want to overwrite this, your respective input block should be placed after the MaxCore statement
================================================================================

================================================================================
                                        WARNINGS
                       Please study these warnings very carefully!
================================================================================

WARNING: Gradients needed for Numerical Frequencies
  ===> : Setting RunTyp to EnGrad

Using external energy/gradient program given in input:
  "/Users/jacobmolinnielsen/Library/orca-external-tools/umaclient.sh"


WARNING: four-center integrals in TRAH must be done with SHARK!
  ===> : Turning Shark on


================================================================================
                                       INPUT FILE
================================================================================
NAME = input.inp
|  1> # Automatically generated ORCA input
|  2> 
|  3> # Number of cores
|  4> %pal nprocs 1 end
|  5> # RAM per core
|  6> %maxcore 20480
|  7> 
|  8> ! ExtOpt 
|  9> ! NumFreq 
| 10> 
| 11> %geom
| 12>   Calc_Hess  true
| 13>   NumHess    true
| 14>   Recalc_Hess 5
| 15>   MaxIter    300
| 16> end
| 17> 
| 18> %method
| 19>     ProgExt "/Users/jacobmolinnielsen/Library/orca-external-tools/umaclient.sh"
| 20>     Ext_Params "-b 127.0.0.1:58940"
| 21>     end
| 22>     %output
| 23>     Print[P_EXT_OUT] 1
| 24>     Print[P_EXT_GRAD] 1
| 25>     end
| 26> %Output
| 27>   JSONPropFile True
| 28> End
| 29> 
| 30> 
| 31> *xyz 0 1 
| 32> C        -2.40424600     -1.41534000      1.01570300
| 33> C        -1.13044800     -0.87212400      1.25488500
| 34> C        -0.01741000     -1.62911400      0.85709500
| 35> C        -0.13762200     -2.89528500      0.31162700
| 36> C        -1.39981600     -3.44223400      0.12646500
| 37> C        -2.51413700     -2.69629500      0.46488500
| 38> H         0.97298400     -1.20735600      0.98660700
| 39> H         0.74760400     -3.45031300      0.02577000
| 40> H        -1.51578500     -4.43125100     -0.29937300
| 41> H        -3.50365200     -3.09560400      0.28328000
| 42> N        -3.59241300     -0.68035800      1.30547100
| 43> B        -0.91800500      0.54966800      1.93285700
| 44> H         1.12111600      4.07373700      0.69783000
| 45> H         2.69293300      3.62865300      0.01403300
| 46> H         1.38875800      2.43370800      0.09811100
| 47> C         3.98637300      1.31205300      0.82362700
| 48> H         4.73059900      2.10507400      0.72480500
| 49> H         4.51302200      0.36342600      0.93138200
| 50> H         3.39191000      1.27157100     -0.08675500
| 51> C         3.92249500      1.37527100      3.32079900
| 52> H         4.28222900      0.34723300      3.36900700
| 53> H         4.78291100      2.04510100      3.34663000
| 54> H         3.30304900      1.56395700      4.19904500
| 55> C        -0.07871600      0.40221700      3.57468700
| 56> C         0.20321600     -0.87181900      4.06971600
| 57> C        -0.14844500     -1.06441700      5.40753200
| 58> H        -1.81517100      1.27566100      2.20689400
| 59> H        -0.08002700      1.19915600      1.29957500
| 60> C         2.31273400      2.88417500      2.01677400
| 61> C         3.11476700      1.54971700      2.04104300
| 62> O         1.14140700      2.54229300      2.79346700
| 63> O         2.06626700      0.55360800      2.06258300
| 64> B         0.93988300      1.18173600      2.59050400
| 65> C         3.00720900      4.05294000      2.68667100
| 66> H         2.38083500      4.94187200      2.60923000
| 67> H         3.18922200      3.85399700      3.74077100
| 68> H         3.95984900      4.26349100      2.19634500
| 69> C         1.85554900      3.27236200      0.61536400
| 70> H         0.64997300     -1.63347500      3.44647100
| 71> C        -0.69791800      0.07819400      5.94983400
| 72> H        -0.01559400     -1.98578500      5.95402100
| 73> H        -1.05987800      0.20126400      6.95962700
| 74> S        -0.77755600      1.35131000      4.85447000
| 75> C        -4.21595300      0.11960700      0.22481900
| 76> C        -4.34023800     -1.01929200      2.52713700
| 77> C        -5.24196800      0.17129600      2.85906000
| 78> C        -3.36004100     -1.19785900      3.68718300
| 79> C        -5.16984700     -2.31485300      2.43254000
| 80> C        -6.24891000      0.49960300      1.75257900
| 81> H        -4.58595400      1.02713100      3.03690700
| 82> H        -5.76122900     -0.02932200      3.79948200
| 83> C        -5.74136300      0.08247700      0.36946300
| 84> H        -6.46167600      1.57062800      1.76978100
| 85> H        -7.20030900     -0.00092600      1.94618100
| 86> C        -3.87852100     -0.43898000     -1.16081900
| 87> C        -3.73316600      1.57874500      0.25696200
| 88> H        -6.17133300      0.72794000     -0.40003300
| 89> H        -6.07512600     -0.93008900      0.13521500
| 90> H        -4.24198600     -1.46032200     -1.27984100
| 91> H        -2.80436200     -0.43472900     -1.34826900
| 92> H        -4.35672200      0.18450000     -1.91878400
| 93> H        -4.23748100      2.15923100     -0.52030300
| 94> H        -2.65937800      1.62954600      0.07472000
| 95> H        -3.92775300      2.04853100      1.22063500
| 96> H        -5.87707400     -2.30277200      1.60494500
| 97> H        -5.73498800     -2.46032500      3.35679100
| 98> H        -4.51515900     -3.17843000      2.30881600
| 99> H        -2.67758700     -2.03015300      3.50806700
|100> H        -3.91244700     -1.40484900      4.60651800
|101> H        -2.77345500     -0.29022800      3.82796700
|102> *
|103> 
|104> 
|105>                          ****END OF INPUT****
================================================================================

                     *******************************
                     * Energy+Gradient Calculation *
                     *******************************

---------------------------------
CARTESIAN COORDINATES (ANGSTROEM)
---------------------------------
  C     -2.404246   -1.415340    1.015703
  C     -1.130448   -0.872124    1.254885
  C     -0.017410   -1.629114    0.857095
  C     -0.137622   -2.895285    0.311627
  C     -1.399816   -3.442234    0.126465
  C     -2.514137   -2.696295    0.464885
  H      0.972984   -1.207356    0.986607
  H      0.747604   -3.450313    0.025770
  H     -1.515785   -4.431251   -0.299373
  H     -3.503652   -3.095604    0.283280
  N     -3.592413   -0.680358    1.305471
  B     -0.918005    0.549668    1.932857
  H      1.121116    4.073737    0.697830
  H      2.692933    3.628653    0.014033
  H      1.388758    2.433708    0.098111
  C      3.986373    1.312053    0.823627
  H      4.730599    2.105074    0.724805
  H      4.513022    0.363426    0.931382
  H      3.391910    1.271571   -0.086755
  C      3.922495    1.375271    3.320799
  H      4.282229    0.347233    3.369007
  H      4.782911    2.045101    3.346630
  H      3.303049    1.563957    4.199045
  C     -0.078716    0.402217    3.574687
  C      0.203216   -0.871819    4.069716
  C     -0.148445   -1.064417    5.407532
  H     -1.815171    1.275661    2.206894
  H     -0.080027    1.199156    1.299575
  C      2.312734    2.884175    2.016774
  C      3.114767    1.549717    2.041043
  O      1.141407    2.542293    2.793467
  O      2.066267    0.553608    2.062583
  B      0.939883    1.181736    2.590504
  C      3.007209    4.052940    2.686671
  H      2.380835    4.941872    2.609230
  H      3.189222    3.853997    3.740771
  H      3.959849    4.263491    2.196345
  C      1.855549    3.272362    0.615364
  H      0.649973   -1.633475    3.446471
  C     -0.697918    0.078194    5.949834
  H     -0.015594   -1.985785    5.954021
  H     -1.059878    0.201264    6.959627
  S     -0.777556    1.351310    4.854470
  C     -4.215953    0.119607    0.224819
  C     -4.340238   -1.019292    2.527137
  C     -5.241968    0.171296    2.859060
  C     -3.360041   -1.197859    3.687183
  C     -5.169847   -2.314853    2.432540
  C     -6.248910    0.499603    1.752579
  H     -4.585954    1.027131    3.036907
  H     -5.761229   -0.029322    3.799482
  C     -5.741363    0.082477    0.369463
  H     -6.461676    1.570628    1.769781
  H     -7.200309   -0.000926    1.946181
  C     -3.878521   -0.438980   -1.160819
  C     -3.733166    1.578745    0.256962
  H     -6.171333    0.727940   -0.400033
  H     -6.075126   -0.930089    0.135215
  H     -4.241986   -1.460322   -1.279841
  H     -2.804362   -0.434729   -1.348269
  H     -4.356722    0.184500   -1.918784
  H     -4.237481    2.159231   -0.520303
  H     -2.659378    1.629546    0.074720
  H     -3.927753    2.048531    1.220635
  H     -5.877074   -2.302772    1.604945
  H     -5.734988   -2.460325    3.356791
  H     -4.515159   -3.178430    2.308816
  H     -2.677587   -2.030153    3.508067
  H     -3.912447   -1.404849    4.606518
  H     -2.773455   -0.290228    3.827967

----------------------------
CARTESIAN COORDINATES (A.U.)
----------------------------
  NO LB      ZA    FRAG     MASS         X           Y           Z
   0 C     6.0000    0    12.011   -4.543366   -2.674605    1.919401
   1 C     6.0000    0    12.011   -2.136237   -1.648076    2.371389
   2 C     6.0000    0    12.011   -0.032900   -3.078579    1.619675
   3 C     6.0000    0    12.011   -0.260068   -5.471296    0.588890
   4 C     6.0000    0    12.011   -2.645269   -6.504880    0.238984
   5 C     6.0000    0    12.011   -4.751030   -5.095259    0.878505
   6 H     1.0000    0     1.008    1.838673   -2.281572    1.864417
   7 H     1.0000    0     1.008    1.412767   -6.520147    0.048698
   8 H     1.0000    0     1.008   -2.864419   -8.373851   -0.565733
   9 H     1.0000    0     1.008   -6.620943   -5.849844    0.535322
  10 N     7.0000    0    14.007   -6.788677   -1.285690    2.466983
  11 B     5.0000    0    10.810   -1.734778    1.038722    3.652570
  12 H     1.0000    0     1.008    2.118602    7.698247    1.318708
  13 H     1.0000    0     1.008    5.088906    6.857160    0.026519
  14 H     1.0000    0     1.008    2.624372    4.599042    0.185403
  15 C     6.0000    0    12.011    7.533153    2.479421    1.556429
  16 H     1.0000    0     1.008    8.939537    3.978013    1.369683
  17 H     1.0000    0     1.008    8.528376    0.686776    1.760057
  18 H     1.0000    0     1.008    6.409781    2.402921   -0.163943
  19 C     6.0000    0    12.011    7.412441    2.598886    6.275401
  20 H     1.0000    0     1.008    8.092240    0.656175    6.366501
  21 H     1.0000    0     1.008    9.038392    3.864681    6.324214
  22 H     1.0000    0     1.008    6.241858    2.955450    7.935045
  23 C     6.0000    0    12.011   -0.148752    0.760080    6.755179
  24 C     6.0000    0    12.011    0.384023   -1.647499    7.690649
  25 C     6.0000    0    12.011   -0.280520   -2.011457   10.218755
  26 H     1.0000    0     1.008   -3.430176    2.410650    4.170425
  27 H     1.0000    0     1.008   -0.151229    2.266076    2.455841
  28 C     6.0000    0    12.011    4.370434    5.450301    3.811151
  29 C     6.0000    0    12.011    5.886057    2.928541    3.857012
  30 O     8.0000    0    15.999    2.156947    4.804238    5.278888
  31 O     8.0000    0    15.999    3.904679    1.046168    3.897717
  32 B     5.0000    0    10.810    1.776121    2.233157    4.895343
  33 C     6.0000    0    12.011    5.682801    7.658947    5.077072
  34 H     1.0000    0     1.008    4.499126    9.338785    4.930730
  35 H     1.0000    0     1.008    6.026756    7.282999    7.069033
  36 H     1.0000    0     1.008    7.483030    8.056830    4.150491
  37 C     6.0000    0    12.011    3.506479    6.183868    1.162869
  38 H     1.0000    0     1.008    1.228271   -3.086820    6.512886
  39 C     6.0000    0    12.011   -1.318874    0.147765   11.243557
  40 H     1.0000    0     1.008   -0.029468   -3.752590   11.251469
  41 H     1.0000    0     1.008   -2.002879    0.380334   13.151789
  42 S    16.0000    0    32.060   -1.469368    2.553606    9.173619
  43 C     6.0000    0    12.011   -7.966997    0.226024    0.424846
  44 C     6.0000    0    12.011   -8.201861   -1.926183    4.775597
  45 C     6.0000    0    12.011   -9.905884    0.323703    5.402840
  46 C     6.0000    0    12.011   -6.349557   -2.263625    6.967766
  47 C     6.0000    0    12.011   -9.769595   -4.374438    4.596834
  48 C     6.0000    0    12.011  -11.808729    0.944113    3.311894
  49 H     1.0000    0     1.008   -8.666197    1.940996    5.738923
  50 H     1.0000    0     1.008  -10.887145   -0.055411    7.179980
  51 C     6.0000    0    12.011  -10.849604    0.155859    0.698184
  52 H     1.0000    0     1.008  -12.210798    2.968057    3.344401
  53 H     1.0000    0     1.008  -13.606612   -0.001750    3.677749
  54 C     6.0000    0    12.011   -7.329342   -0.829552   -2.193630
  55 C     6.0000    0    12.011   -7.054661    2.983396    0.485588
  56 H     1.0000    0     1.008  -11.662129    1.375607   -0.755953
  57 H     1.0000    0     1.008  -11.480324   -1.757613    0.255519
  58 H     1.0000    0     1.008   -8.016192   -2.759609   -2.418549
  59 H     1.0000    0     1.008   -5.299476   -0.821519   -2.547859
  60 H     1.0000    0     1.008   -8.233011    0.348654   -3.625976
  61 H     1.0000    0     1.008   -8.007679    4.080355   -0.983230
  62 H     1.0000    0     1.008   -5.025496    3.079396    0.141200
  63 H     1.0000    0     1.008   -7.422377    3.871163    2.306666
  64 H     1.0000    0     1.008  -11.106060   -4.351608    3.032907
  65 H     1.0000    0     1.008  -10.837557   -4.649340    6.343416
  66 H     1.0000    0     1.008   -8.532414   -6.006362    4.363030
  67 H     1.0000    0     1.008   -5.059906   -3.836433    6.629286
  68 H     1.0000    0     1.008   -7.393453   -2.654780    8.705057
  69 H     1.0000    0     1.008   -5.241070   -0.548451    7.233809

--------------------------------
INTERNAL COORDINATES (ANGSTROEM)
--------------------------------
 C      0   0   0     0.000000000000     0.00000000     0.00000000
 C      1   0   0     1.405294629814     0.00000000     0.00000000
 C      2   1   0     1.403611176090   117.52092899     0.00000000
 C      3   2   1     1.383898574755   122.42935954   356.67048772
 C      4   3   2     1.388010039042   119.47884096     0.98708204
 C      5   4   3     1.382991098728   119.17736913     1.40673808
 H      3   2   1     1.084220200856   118.73200555   176.96316004
 H      4   3   2     1.083233758848   120.12049462   180.55883685
 H      5   4   3     1.083024209099   120.64209922   179.96120095
 H      6   5   4     1.082389943011   119.77267361   177.26272348
 N      1   2   3     1.426851377697   121.40745884   184.17510563
 B      2   1   3     1.589424597865   122.65191796   179.31852946
 H     12   2   1     4.254687821701   132.93468178   236.78440043
 H     13  12   2     1.770956460717   109.22544358   315.75051947
 H     13  12   2     1.766632457521    53.28934611   338.96105288
 C     14  13  12     2.773998024231   120.73291590   332.70175299
 H     16  14  13     1.092025839072    71.63352540   220.71443454
 H     16  14  13     1.090350170521   168.70195722   129.91856541
 H     16  14  13     1.088035126555    62.10317366    96.54585167
 C     16  14  13     2.498788688944   104.98787590   311.21425159
 H     20  16  14     1.090226899074    90.68174202   169.97221442
 H     20  16  14     1.090713144010    91.09087915   278.51766313
 H     20  16  14     1.091160753523   145.41041351    45.09675907
 C     12   2   1     1.849798251654   111.58832037   115.17248835
 C     24  12   2     1.395602770405   118.63667882   356.56775060
 C     25  24  12     1.396606994964   114.50671472   226.65442007
 H     12   2   1     1.186199369825   123.02012352   355.37827243
 H     12   2   1     1.234944485453   110.02414776   226.32008634
 C     13  12   2     2.138837180550    68.12065206   262.06164477
 C     16  14  13     1.516008876355    80.52434358   336.18163100
 O     29  13  12     1.446423955520    90.65433967   322.43324770
 O     30  16  14     1.446391842303   108.70940522   108.36050841
 B     31  29  13     1.390295383073   105.68208843   112.62848536
 C     29  13  12     1.515608505340    95.67918690   213.84818279
 H     34  29  13     1.090202548603   109.51906348    24.93757272
 H     34  29  13     1.088041294905   111.33755044   144.68408623
 H     34  29  13     1.091913128173   110.48664610   265.86114036
 C     13  12   2     1.090135020660    74.69022171   306.49167665
 H     25  24  12     1.080808035411   121.48584353    46.16120107
 C     26  25  24     1.378974957805   111.27073568   359.54404924
 H     26  25  24     1.079452920116   124.86692193   179.28416965
 H     40  26  25     1.079742177258   126.57026928   179.57697128
 S     40  26  25     1.681365175385   112.95929268   359.85635718
 C     11   1   2     1.482077891991   118.70494799    93.56253386
 C     11   1   2     1.471932845797   118.22988494   257.57709034
 C     45  11   1     1.529963939632   107.47636086   160.79992479
 C     45  11   1     1.529175939653   109.32047032    44.17123116
 C     45  11   1     1.541323454052   114.58665736   284.01583295
 C     46  45  11     1.531671596973   113.42462933    60.24919691
 H     46  45  11     1.092903230314   106.91242773   298.65231980
 H     46  45  11     1.092828031361   108.89788695   183.60991062
 C     49  46  45     1.531211261238   112.10032217   332.32179607
 H     49  46  45     1.092089662155   109.08149714   209.93869719
 H     49  46  45     1.092323702684   110.26378242    93.83191755
 C     44  11   1     1.531624124332   111.72227821    25.92777504
 C     44  11   1     1.537270361017   111.40454570   266.04187410
 H     52  49  46     1.092529532454   110.17028659   208.48223819
 H     52  49  46     1.091585896771   110.19310247    91.80142971
 H     55  44  11     1.090601908889   111.52154093    60.81142921
 H     55  44  11     1.090400445149   111.78535275   299.46762827
 H     55  44  11     1.091748344641   108.86375274   180.17643897
 H     56  44  11     1.093361100299   110.13370741   182.42230072
 H     56  44  11     1.090327270644   110.48855668    63.06506802
 H     56  44  11     1.089600219023   111.81727898   303.15052931
 H     48  45  11     1.088682444111   112.76676122   303.63635985
 H     48  45  11     1.093062836101   109.77069961   183.22235323
 H     48  45  11     1.090728765757   110.45011900    64.84583045
 H     47  45  11     1.091118373967   111.43598406   297.03660713
 H     47  45  11     1.092325084927   109.65979156   177.44384987
 H     47  45  11     1.089815260589   110.22808978    57.75751105

---------------------------
INTERNAL COORDINATES (A.U.)
---------------------------
 C      0   0   0     0.000000000000     0.00000000     0.00000000
 C      1   0   0     2.655621987819     0.00000000     0.00000000
 C      2   1   0     2.652440721321   117.52092899     0.00000000
 C      3   2   1     2.615189303411   122.42935954   356.67048772
 C      4   3   2     2.622958844922   119.47884096     0.98708204
 C      5   4   3     2.613474422248   119.17736913     1.40673808
 H      3   2   1     2.048879248483   118.73200555   176.96316004
 H      4   3   2     2.047015143242   120.12049462   180.55883685
 H      5   4   3     2.046619151603   120.64209922   179.96120095
 H      6   5   4     2.045420562401   119.77267361   177.26272348
 N      1   2   3     2.696358337656   121.40745884   184.17510563
 B      2   1   3     3.003577200482   122.65191796   179.31852946
 H     12   2   1     8.040194768345   132.93468178   236.78440043
 H     13  12   2     3.346622705853   109.22544358   315.75051947
 H     13  12   2     3.338451524011    53.28934611   338.96105288
 C     14  13  12     5.242096561835   120.73291590   332.70175299
 H     16  14  13     2.063629767012    71.63352540   220.71443454
 H     16  14  13     2.060463212359   168.70195722   129.91856541
 H     16  14  13     2.056088413275    62.10317366    96.54585167
 C     16  14  13     4.722026288643   104.98787590   311.21425159
 H     20  16  14     2.060230263084    90.68174202   169.97221442
 H     20  16  14     2.061149132848    91.09087915   278.51766313
 H     20  16  14     2.061994992241   145.41041351    45.09675907
 C     12   2   1     3.495612098632   111.58832037   115.17248835
 C     24  12   2     2.637307027806   118.63667882   356.56775060
 C     25  24  12     2.639204737200   114.50671472   226.65442007
 H     12   2   1     2.241591949200   123.02012352   355.37827243
 H     12   2   1     2.333706868103   110.02414776   226.32008634
 C     13  12   2     4.041816516288    68.12065206   262.06164477
 C     16  14  13     2.864841592905    80.52434358   336.18163100
 O     29  13  12     2.733345149476    90.65433967   322.43324770
 O     30  16  14     2.733284464291   108.70940522   108.36050841
 B     31  29  13     2.627277519263   105.68208843   112.62848536
 C     29  13  12     2.864085001334    95.67918690   213.84818279
 H     34  29  13     2.060184247363   109.51906348    24.93757272
 H     34  29  13     2.056100069767   111.33755044   144.68408623
 H     34  29  13     2.063416774281   110.48664610   265.86114036
 C     13  12   2     2.060056638045    74.69022171   306.49167665
 H     25  24  12     2.042431190269   121.48584353    46.16120107
 C     26  25  24     2.605885015788   111.27073568   359.54404924
 H     26  25  24     2.039870393480   124.86692193   179.28416965
 H     40  26  25     2.040417010261   126.57026928   179.57697128
 S     40  26  25     3.177319712589   112.95929268   359.85635718
 C     11   1   2     2.800721325003   118.70494799    93.56253386
 C     11   1   2     2.781549966080   118.22988494   257.57709034
 C     45  11   1     2.891212840679   107.47636086   160.79992479
 C     45  11   1     2.889723736526   109.32047032    44.17123116
 C     45  11   1     2.912679211948   114.58665736   284.01583295
 C     46  45  11     2.894439845385   113.42462933    60.24919691
 H     46  45  11     2.065287796171   106.91242773   298.65231980
 H     46  45  11     2.065145690745   108.89788695   183.60991062
 C     49  46  45     2.893569936915   112.10032217   332.32179607
 H     49  46  45     2.063750375159   109.08149714   209.93869719
 H     49  46  45     2.064192647664   110.26378242    93.83191755
 C     44  11   1     2.894350135095   111.72227821    25.92777504
 C     44  11   1     2.905019976117   111.40454570   266.04187410
 H     52  49  46     2.064581609560   110.17028659   208.48223819
 H     52  49  46     2.062798396548   110.19310247    91.80142971
 H     55  44  11     2.060938928933   111.52154093    60.81142921
 H     55  44  11     2.060558217638   111.78535275   299.46762827
 H     55  44  11     2.063105378533   108.86375274   180.17643897
 H     56  44  11     2.066153045047   110.13370741   182.42230072
 H     56  44  11     2.060419937862   110.48855668    63.06506802
 H     56  44  11     2.059046009413   111.81727898   303.15052931
 H     48  45  11     2.057311666177   112.76676122   303.63635985
 H     48  45  11     2.065589407399   109.77069961   183.22235323
 H     48  45  11     2.061178653670   110.45011900    64.84583045
 H     47  45  11     2.061914906487   111.43598406   297.03660713
 H     47  45  11     2.064195259724   109.65979156   177.44384987
 H     47  45  11     2.059452379082   110.22808978    57.75751105

Calling /Users/jacobmolinnielsen/Library/orca-external-tools/umaclient.sh input_EXT.extinp.tmp -b 127.0.0.1:58940  ... 

Total time:   3.170 seconds

External program completed successfully in 3.201 sec

-------------------------------------------------   --------------------
FINAL SINGLE POINT ENERGY (From external program)     -1629.231342772000
-------------------------------------------------   --------------------


------------------
CARTESIAN GRADIENT
------------------

   1   C   :    0.000012616    0.000042273    0.000019031
   2   C   :   -0.000015832   -0.000029648   -0.000014065
   3   C   :    0.000013888    0.000047861    0.000020031
   4   C   :   -0.000017599   -0.000048194   -0.000020798
   5   C   :    0.000014950    0.000038702    0.000016040
   6   C   :   -0.000011752   -0.000042859   -0.000019600
   7   H   :   -0.000021294   -0.000012993   -0.000003704
   8   H   :   -0.000008402    0.000009749    0.000005432
   9   H   :   -0.000003541   -0.000018134   -0.000007052
  10   H   :    0.000019427    0.000011089    0.000005480
  11   N   :    0.000015148   -0.000010147   -0.000003333
  12   B   :   -0.000000529    0.000020053    0.000006300
  13   H   :   -0.000005708   -0.000002473    0.000000253
  14   H   :   -0.000005392   -0.000007398    0.000008618
  15   H   :   -0.000017865   -0.000015001   -0.000009716
  16   C   :   -0.000013353    0.000019286   -0.000003367
  17   H   :    0.000006930   -0.000002585    0.000000224
  18   H   :    0.000014618   -0.000016508    0.000001896
  19   H   :   -0.000006700   -0.000000728   -0.000003575
  20   C   :    0.000004774    0.000037886    0.000005429
  21   H   :    0.000011536   -0.000023051    0.000000958
  22   H   :   -0.000007495   -0.000014855   -0.000000699
  23   H   :   -0.000006570   -0.000001095    0.000000274
  24   C   :   -0.000005355    0.000022321   -0.000016176
  25   C   :    0.000002805   -0.000012494    0.000006635
  26   C   :   -0.000000171    0.000004889   -0.000003230
  27   H   :    0.000003101   -0.000006319   -0.000003175
  28   H   :    0.000000305   -0.000002806    0.000001241
  29   C   :   -0.000017003   -0.000007792    0.000015409
  30   C   :   -0.000004714   -0.000011094   -0.000000475
  31   O   :    0.000015847    0.000029884   -0.000000950
  32   O   :   -0.000005931    0.000007654    0.000007365
  33   B   :    0.000004068   -0.000033352   -0.000011576
  34   C   :    0.000029743    0.000021024   -0.000041863
  35   H   :   -0.000009552    0.000002094    0.000001104
  36   H   :    0.000006278   -0.000005545    0.000028951
  37   H   :   -0.000020692   -0.000007306    0.000017041
  38   C   :    0.000021406    0.000028913   -0.000013634
  39   H   :    0.000010671   -0.000009024   -0.000008993
  40   C   :   -0.000001750    0.000000156    0.000006579
  41   H   :    0.000004822   -0.000019030    0.000012643
  42   H   :   -0.000008814    0.000000669    0.000008540
  43   S   :   -0.000006413    0.000014804   -0.000005606
  44   C   :   -0.000030493   -0.000004586    0.000005874
  45   C   :    0.000008940   -0.000001671    0.000002157
  46   C   :   -0.000002447   -0.000000176   -0.000007028
  47   C   :    0.000004373   -0.000007706   -0.000004352
  48   C   :   -0.000001380   -0.000008840   -0.000016686
  49   C   :   -0.000001306   -0.000052774    0.000011420
  50   H   :    0.000010607    0.000011903    0.000002950
  51   H   :   -0.000009099   -0.000001928    0.000013325
  52   C   :    0.000057823    0.000016669    0.000005630
  53   H   :   -0.000011229    0.000049179    0.000001230
  54   H   :   -0.000000615    0.000009313   -0.000001724
  55   C   :    0.000064096   -0.000002356   -0.000021088
  56   C   :    0.000016420    0.000010450   -0.000002751
  57   H   :   -0.000013799    0.000011747   -0.000015842
  58   H   :   -0.000015721   -0.000029821   -0.000007828
  59   H   :   -0.000005836   -0.000000488    0.000000879
  60   H   :   -0.000051521   -0.000000012    0.000011150
  61   H   :   -0.000006377    0.000000898    0.000001589
  62   H   :   -0.000001913   -0.000000053   -0.000000919
  63   H   :   -0.000005365   -0.000000391    0.000001694
  64   H   :   -0.000000531   -0.000000999    0.000002128
  65   H   :   -0.000002325   -0.000000368    0.000011774
  66   H   :   -0.000007609   -0.000000784    0.000006065
  67   H   :    0.000008660    0.000000924   -0.000000332
  68   H   :   -0.000000525    0.000006173    0.000001691
  69   H   :   -0.000003724   -0.000000376    0.000002208
  70   H   :    0.000010392   -0.000002802   -0.000007105

Difference to translation invariance:
           :    0.0000000035    0.0000000006   -0.0000000047

Difference to rotation invariance:
           :    0.0000000419    0.0000000273   -0.0000000216

Norm of the Cartesian gradient     ...    0.0002333522
RMS gradient                       ...    0.0000161028
MAX gradient                       ...    0.0000640962

----------------------------------------------------------------------------
                           ORCA NUMERICAL FREQUENCIES
----------------------------------------------------------------------------

Number of atoms                ... 70
Central differences            ... used
Translation invariance         ... used
Number of displacements        ... 420 - 6
Numerical increment            ... 5.000e-03 bohr
IR-spectrum generation         ... on
Raman-spectrum generation      ... off
Surface Crossing Hessian       ... off

The output will be reduced. Please look at the following files:
SCF program output             ... >input.lastscf
Integral program output        ... >input.lastint
Gradient program output        ... >input.lastgrad
Dipole moment program output   ... >input.lastmom

	<< Calculating gradient on displaced geometry   1 (of 414) >>
	<< Calculating gradient on displaced geometry   2 (of 414) >>
	<< Calculating gradient on displaced geometry   3 (of 414) >>
	<< Calculating gradient on displaced geometry   4 (of 414) >>
	<< Calculating gradient on displaced geometry   5 (of 414) >>
	<< Calculating gradient on displaced geometry   6 (of 414) >>
	<< Calculating gradient on displaced geometry   7 (of 414) >>
	<< Calculating gradient on displaced geometry   8 (of 414) >>
	<< Calculating gradient on displaced geometry   9 (of 414) >>
	<< Calculating gradient on displaced geometry  10 (of 414) >>
	<< Calculating gradient on displaced geometry  11 (of 414) >>
	<< Calculating gradient on displaced geometry  12 (of 414) >>
	<< Calculating gradient on displaced geometry  13 (of 414) >>
	<< Calculating gradient on displaced geometry  14 (of 414) >>
	<< Calculating gradient on displaced geometry  15 (of 414) >>
	<< Calculating gradient on displaced geometry  16 (of 414) >>
	<< Calculating gradient on displaced geometry  17 (of 414) >>
	<< Calculating gradient on displaced geometry  18 (of 414) >>
	<< Calculating gradient on displaced geometry  19 (of 414) >>
	<< Calculating gradient on displaced geometry  20 (of 414) >>
	<< Calculating gradient on displaced geometry  21 (of 414) >>
	<< Calculating gradient on displaced geometry  22 (of 414) >>
	<< Calculating gradient on displaced geometry  23 (of 414) >>
	<< Calculating gradient on displaced geometry  24 (of 414) >>
	<< Calculating gradient on displaced geometry  25 (of 414) >>
	<< Calculating gradient on displaced geometry  26 (of 414) >>
	<< Calculating gradient on displaced geometry  27 (of 414) >>
	<< Calculating gradient on displaced geometry  28 (of 414) >>
	<< Calculating gradient on displaced geometry  29 (of 414) >>
	<< Calculating gradient on displaced geometry  30 (of 414) >>
	<< Calculating gradient on displaced geometry  31 (of 414) >>
	<< Calculating gradient on displaced geometry  32 (of 414) >>
	<< Calculating gradient on displaced geometry  33 (of 414) >>
	<< Calculating gradient on displaced geometry  34 (of 414) >>
	<< Calculating gradient on displaced geometry  35 (of 414) >>
	<< Calculating gradient on displaced geometry  36 (of 414) >>
	<< Calculating gradient on displaced geometry  37 (of 414) >>
	<< Calculating gradient on displaced geometry  38 (of 414) >>
	<< Calculating gradient on displaced geometry  39 (of 414) >>
	<< Calculating gradient on displaced geometry  40 (of 414) >>
	<< Calculating gradient on displaced geometry  41 (of 414) >>
	<< Calculating gradient on displaced geometry  42 (of 414) >>
	<< Calculating gradient on displaced geometry  43 (of 414) >>
	<< Calculating gradient on displaced geometry  44 (of 414) >>
	<< Calculating gradient on displaced geometry  45 (of 414) >>
	<< Calculating gradient on displaced geometry  46 (of 414) >>
	<< Calculating gradient on displaced geometry  47 (of 414) >>
	<< Calculating gradient on displaced geometry  48 (of 414) >>
	<< Calculating gradient on displaced geometry  49 (of 414) >>
	<< Calculating gradient on displaced geometry  50 (of 414) >>
	<< Calculating gradient on displaced geometry  51 (of 414) >>
	<< Calculating gradient on displaced geometry  52 (of 414) >>
	<< Calculating gradient on displaced geometry  53 (of 414) >>
	<< Calculating gradient on displaced geometry  54 (of 414) >>
	<< Calculating gradient on displaced geometry  55 (of 414) >>
	<< Calculating gradient on displaced geometry  56 (of 414) >>
	<< Calculating gradient on displaced geometry  57 (of 414) >>
	<< Calculating gradient on displaced geometry  58 (of 414) >>
	<< Calculating gradient on displaced geometry  59 (of 414) >>
	<< Calculating gradient on displaced geometry  60 (of 414) >>
	<< Calculating gradient on displaced geometry  61 (of 414) >>
	<< Calculating gradient on displaced geometry  62 (of 414) >>
	<< Calculating gradient on displaced geometry  63 (of 414) >>
	<< Calculating gradient on displaced geometry  64 (of 414) >>
	<< Calculating gradient on displaced geometry  65 (of 414) >>
	<< Calculating gradient on displaced geometry  66 (of 414) >>
	<< Calculating gradient on displaced geometry  67 (of 414) >>
	<< Calculating gradient on displaced geometry  68 (of 414) >>
	<< Calculating gradient on displaced geometry  69 (of 414) >>
	<< Calculating gradient on displaced geometry  70 (of 414) >>
	<< Calculating gradient on displaced geometry  71 (of 414) >>
	<< Calculating gradient on displaced geometry  72 (of 414) >>
	<< Calculating gradient on displaced geometry  73 (of 414) >>
	<< Calculating gradient on displaced geometry  74 (of 414) >>
	<< Calculating gradient on displaced geometry  75 (of 414) >>
	<< Calculating gradient on displaced geometry  76 (of 414) >>
	<< Calculating gradient on displaced geometry  77 (of 414) >>
	<< Calculating gradient on displaced geometry  78 (of 414) >>
	<< Calculating gradient on displaced geometry  79 (of 414) >>
	<< Calculating gradient on displaced geometry  80 (of 414) >>
	<< Calculating gradient on displaced geometry  81 (of 414) >>
	<< Calculating gradient on displaced geometry  82 (of 414) >>
	<< Calculating gradient on displaced geometry  83 (of 414) >>
	<< Calculating gradient on displaced geometry  84 (of 414) >>
	<< Calculating gradient on displaced geometry  85 (of 414) >>
	<< Calculating gradient on displaced geometry  86 (of 414) >>
	<< Calculating gradient on displaced geometry  87 (of 414) >>
	<< Calculating gradient on displaced geometry  88 (of 414) >>
	<< Calculating gradient on displaced geometry  89 (of 414) >>
	<< Calculating gradient on displaced geometry  90 (of 414) >>
	<< Calculating gradient on displaced geometry  91 (of 414) >>
	<< Calculating gradient on displaced geometry  92 (of 414) >>
	<< Calculating gradient on displaced geometry  93 (of 414) >>
	<< Calculating gradient on displaced geometry  94 (of 414) >>
	<< Calculating gradient on displaced geometry  95 (of 414) >>
	<< Calculating gradient on displaced geometry  96 (of 414) >>
	<< Calculating gradient on displaced geometry  97 (of 414) >>
	<< Calculating gradient on displaced geometry  98 (of 414) >>
	<< Calculating gradient on displaced geometry  99 (of 414) >>
	<< Calculating gradient on displaced geometry 100 (of 414) >>
	<< Calculating gradient on displaced geometry 101 (of 414) >>
	<< Calculating gradient on displaced geometry 102 (of 414) >>
	<< Calculating gradient on displaced geometry 103 (of 414) >>
	<< Calculating gradient on displaced geometry 104 (of 414) >>
	<< Calculating gradient on displaced geometry 105 (of 414) >>
	<< Calculating gradient on displaced geometry 106 (of 414) >>
	<< Calculating gradient on displaced geometry 107 (of 414) >>
	<< Calculating gradient on displaced geometry 108 (of 414) >>
	<< Calculating gradient on displaced geometry 109 (of 414) >>
	<< Calculating gradient on displaced geometry 110 (of 414) >>
	<< Calculating gradient on displaced geometry 111 (of 414) >>
	<< Calculating gradient on displaced geometry 112 (of 414) >>
	<< Calculating gradient on displaced geometry 113 (of 414) >>
	<< Calculating gradient on displaced geometry 114 (of 414) >>
	<< Calculating gradient on displaced geometry 115 (of 414) >>
	<< Calculating gradient on displaced geometry 116 (of 414) >>
	<< Calculating gradient on displaced geometry 117 (of 414) >>
	<< Calculating gradient on displaced geometry 118 (of 414) >>
	<< Calculating gradient on displaced geometry 119 (of 414) >>
	<< Calculating gradient on displaced geometry 120 (of 414) >>
	<< Calculating gradient on displaced geometry 121 (of 414) >>
	<< Calculating gradient on displaced geometry 122 (of 414) >>
	<< Calculating gradient on displaced geometry 123 (of 414) >>
	<< Calculating gradient on displaced geometry 124 (of 414) >>
	<< Calculating gradient on displaced geometry 125 (of 414) >>
	<< Calculating gradient on displaced geometry 126 (of 414) >>
	<< Calculating gradient on displaced geometry 127 (of 414) >>
	<< Calculating gradient on displaced geometry 128 (of 414) >>
	<< Calculating gradient on displaced geometry 129 (of 414) >>
	<< Calculating gradient on displaced geometry 130 (of 414) >>
	<< Calculating gradient on displaced geometry 131 (of 414) >>
	<< Calculating gradient on displaced geometry 132 (of 414) >>
	<< Calculating gradient on displaced geometry 133 (of 414) >>
	<< Calculating gradient on displaced geometry 134 (of 414) >>
	<< Calculating gradient on displaced geometry 135 (of 414) >>
	<< Calculating gradient on displaced geometry 136 (of 414) >>
	<< Calculating gradient on displaced geometry 137 (of 414) >>
	<< Calculating gradient on displaced geometry 138 (of 414) >>
	<< Calculating gradient on displaced geometry 139 (of 414) >>
	<< Calculating gradient on displaced geometry 140 (of 414) >>
	<< Calculating gradient on displaced geometry 141 (of 414) >>
	<< Calculating gradient on displaced geometry 142 (of 414) >>
	<< Calculating gradient on displaced geometry 143 (of 414) >>
	<< Calculating gradient on displaced geometry 144 (of 414) >>
	<< Calculating gradient on displaced geometry 145 (of 414) >>
	<< Calculating gradient on displaced geometry 146 (of 414) >>
	<< Calculating gradient on displaced geometry 147 (of 414) >>
	<< Calculating gradient on displaced geometry 148 (of 414) >>
	<< Calculating gradient on displaced geometry 149 (of 414) >>
	<< Calculating gradient on displaced geometry 150 (of 414) >>
	<< Calculating gradient on displaced geometry 151 (of 414) >>
	<< Calculating gradient on displaced geometry 152 (of 414) >>
	<< Calculating gradient on displaced geometry 153 (of 414) >>
	<< Calculating gradient on displaced geometry 154 (of 414) >>
	<< Calculating gradient on displaced geometry 155 (of 414) >>
	<< Calculating gradient on displaced geometry 156 (of 414) >>
	<< Calculating gradient on displaced geometry 157 (of 414) >>
	<< Calculating gradient on displaced geometry 158 (of 414) >>
	<< Calculating gradient on displaced geometry 159 (of 414) >>
	<< Calculating gradient on displaced geometry 160 (of 414) >>
	<< Calculating gradient on displaced geometry 161 (of 414) >>
	<< Calculating gradient on displaced geometry 162 (of 414) >>
	<< Calculating gradient on displaced geometry 163 (of 414) >>
	<< Calculating gradient on displaced geometry 164 (of 414) >>
	<< Calculating gradient on displaced geometry 165 (of 414) >>
	<< Calculating gradient on displaced geometry 166 (of 414) >>
	<< Calculating gradient on displaced geometry 167 (of 414) >>
	<< Calculating gradient on displaced geometry 168 (of 414) >>
	<< Calculating gradient on displaced geometry 169 (of 414) >>
	<< Calculating gradient on displaced geometry 170 (of 414) >>
	<< Calculating gradient on displaced geometry 171 (of 414) >>
	<< Calculating gradient on displaced geometry 172 (of 414) >>
	<< Calculating gradient on displaced geometry 173 (of 414) >>
	<< Calculating gradient on displaced geometry 174 (of 414) >>
	<< Calculating gradient on displaced geometry 175 (of 414) >>
	<< Calculating gradient on displaced geometry 176 (of 414) >>
	<< Calculating gradient on displaced geometry 177 (of 414) >>
	<< Calculating gradient on displaced geometry 178 (of 414) >>
	<< Calculating gradient on displaced geometry 179 (of 414) >>
	<< Calculating gradient on displaced geometry 180 (of 414) >>
	<< Calculating gradient on displaced geometry 181 (of 414) >>
	<< Calculating gradient on displaced geometry 182 (of 414) >>
	<< Calculating gradient on displaced geometry 183 (of 414) >>
	<< Calculating gradient on displaced geometry 184 (of 414) >>
	<< Calculating gradient on displaced geometry 185 (of 414) >>
	<< Calculating gradient on displaced geometry 186 (of 414) >>
	<< Calculating gradient on displaced geometry 187 (of 414) >>
	<< Calculating gradient on displaced geometry 188 (of 414) >>
	<< Calculating gradient on displaced geometry 189 (of 414) >>
	<< Calculating gradient on displaced geometry 190 (of 414) >>
	<< Calculating gradient on displaced geometry 191 (of 414) >>
	<< Calculating gradient on displaced geometry 192 (of 414) >>
	<< Calculating gradient on displaced geometry 193 (of 414) >>
	<< Calculating gradient on displaced geometry 194 (of 414) >>
	<< Calculating gradient on displaced geometry 195 (of 414) >>
	<< Calculating gradient on displaced geometry 196 (of 414) >>
	<< Calculating gradient on displaced geometry 197 (of 414) >>
	<< Calculating gradient on displaced geometry 198 (of 414) >>
	<< Calculating gradient on displaced geometry 199 (of 414) >>
	<< Calculating gradient on displaced geometry 200 (of 414) >>
	<< Calculating gradient on displaced geometry 201 (of 414) >>
	<< Calculating gradient on displaced geometry 202 (of 414) >>
	<< Calculating gradient on displaced geometry 203 (of 414) >>
	<< Calculating gradient on displaced geometry 204 (of 414) >>
	<< Calculating gradient on displaced geometry 205 (of 414) >>
	<< Calculating gradient on displaced geometry 206 (of 414) >>
	<< Calculating gradient on displaced geometry 207 (of 414) >>
	<< Calculating gradient on displaced geometry 208 (of 414) >>
	<< Calculating gradient on displaced geometry 209 (of 414) >>
	<< Calculating gradient on displaced geometry 210 (of 414) >>
	<< Calculating gradient on displaced geometry 211 (of 414) >>
	<< Calculating gradient on displaced geometry 212 (of 414) >>
	<< Calculating gradient on displaced geometry 213 (of 414) >>
	<< Calculating gradient on displaced geometry 214 (of 414) >>
	<< Calculating gradient on displaced geometry 215 (of 414) >>
	<< Calculating gradient on displaced geometry 216 (of 414) >>
	<< Calculating gradient on displaced geometry 217 (of 414) >>
	<< Calculating gradient on displaced geometry 218 (of 414) >>
	<< Calculating gradient on displaced geometry 219 (of 414) >>
	<< Calculating gradient on displaced geometry 220 (of 414) >>
	<< Calculating gradient on displaced geometry 221 (of 414) >>
	<< Calculating gradient on displaced geometry 222 (of 414) >>
	<< Calculating gradient on displaced geometry 223 (of 414) >>
	<< Calculating gradient on displaced geometry 224 (of 414) >>
	<< Calculating gradient on displaced geometry 225 (of 414) >>
	<< Calculating gradient on displaced geometry 226 (of 414) >>
	<< Calculating gradient on displaced geometry 227 (of 414) >>
	<< Calculating gradient on displaced geometry 228 (of 414) >>
	<< Calculating gradient on displaced geometry 229 (of 414) >>
	<< Calculating gradient on displaced geometry 230 (of 414) >>
	<< Calculating gradient on displaced geometry 231 (of 414) >>
	<< Calculating gradient on displaced geometry 232 (of 414) >>
	<< Calculating gradient on displaced geometry 233 (of 414) >>
	<< Calculating gradient on displaced geometry 234 (of 414) >>
	<< Calculating gradient on displaced geometry 235 (of 414) >>
	<< Calculating gradient on displaced geometry 236 (of 414) >>
	<< Calculating gradient on displaced geometry 237 (of 414) >>
	<< Calculating gradient on displaced geometry 238 (of 414) >>
	<< Calculating gradient on displaced geometry 239 (of 414) >>
	<< Calculating gradient on displaced geometry 240 (of 414) >>
	<< Calculating gradient on displaced geometry 241 (of 414) >>
	<< Calculating gradient on displaced geometry 242 (of 414) >>
	<< Calculating gradient on displaced geometry 243 (of 414) >>
	<< Calculating gradient on displaced geometry 244 (of 414) >>
	<< Calculating gradient on displaced geometry 245 (of 414) >>
	<< Calculating gradient on displaced geometry 246 (of 414) >>
	<< Calculating gradient on displaced geometry 247 (of 414) >>
	<< Calculating gradient on displaced geometry 248 (of 414) >>
	<< Calculating gradient on displaced geometry 249 (of 414) >>
	<< Calculating gradient on displaced geometry 250 (of 414) >>
	<< Calculating gradient on displaced geometry 251 (of 414) >>
	<< Calculating gradient on displaced geometry 252 (of 414) >>
	<< Calculating gradient on displaced geometry 253 (of 414) >>
	<< Calculating gradient on displaced geometry 254 (of 414) >>
	<< Calculating gradient on displaced geometry 255 (of 414) >>
	<< Calculating gradient on displaced geometry 256 (of 414) >>
	<< Calculating gradient on displaced geometry 257 (of 414) >>
	<< Calculating gradient on displaced geometry 258 (of 414) >>
	<< Calculating gradient on displaced geometry 259 (of 414) >>
	<< Calculating gradient on displaced geometry 260 (of 414) >>
	<< Calculating gradient on displaced geometry 261 (of 414) >>
	<< Calculating gradient on displaced geometry 262 (of 414) >>
	<< Calculating gradient on displaced geometry 263 (of 414) >>
	<< Calculating gradient on displaced geometry 264 (of 414) >>
	<< Calculating gradient on displaced geometry 265 (of 414) >>
	<< Calculating gradient on displaced geometry 266 (of 414) >>
	<< Calculating gradient on displaced geometry 267 (of 414) >>
	<< Calculating gradient on displaced geometry 268 (of 414) >>
	<< Calculating gradient on displaced geometry 269 (of 414) >>
	<< Calculating gradient on displaced geometry 270 (of 414) >>
	<< Calculating gradient on displaced geometry 271 (of 414) >>
	<< Calculating gradient on displaced geometry 272 (of 414) >>
	<< Calculating gradient on displaced geometry 273 (of 414) >>
	<< Calculating gradient on displaced geometry 274 (of 414) >>
	<< Calculating gradient on displaced geometry 275 (of 414) >>
	<< Calculating gradient on displaced geometry 276 (of 414) >>
	<< Calculating gradient on displaced geometry 277 (of 414) >>
	<< Calculating gradient on displaced geometry 278 (of 414) >>
	<< Calculating gradient on displaced geometry 279 (of 414) >>
	<< Calculating gradient on displaced geometry 280 (of 414) >>
	<< Calculating gradient on displaced geometry 281 (of 414) >>
	<< Calculating gradient on displaced geometry 282 (of 414) >>
	<< Calculating gradient on displaced geometry 283 (of 414) >>
	<< Calculating gradient on displaced geometry 284 (of 414) >>
	<< Calculating gradient on displaced geometry 285 (of 414) >>
	<< Calculating gradient on displaced geometry 286 (of 414) >>
	<< Calculating gradient on displaced geometry 287 (of 414) >>
	<< Calculating gradient on displaced geometry 288 (of 414) >>
	<< Calculating gradient on displaced geometry 289 (of 414) >>
	<< Calculating gradient on displaced geometry 290 (of 414) >>
	<< Calculating gradient on displaced geometry 291 (of 414) >>
	<< Calculating gradient on displaced geometry 292 (of 414) >>
	<< Calculating gradient on displaced geometry 293 (of 414) >>
	<< Calculating gradient on displaced geometry 294 (of 414) >>
	<< Calculating gradient on displaced geometry 295 (of 414) >>
	<< Calculating gradient on displaced geometry 296 (of 414) >>
	<< Calculating gradient on displaced geometry 297 (of 414) >>
	<< Calculating gradient on displaced geometry 298 (of 414) >>
	<< Calculating gradient on displaced geometry 299 (of 414) >>
	<< Calculating gradient on displaced geometry 300 (of 414) >>
	<< Calculating gradient on displaced geometry 301 (of 414) >>
	<< Calculating gradient on displaced geometry 302 (of 414) >>
	<< Calculating gradient on displaced geometry 303 (of 414) >>
	<< Calculating gradient on displaced geometry 304 (of 414) >>
	<< Calculating gradient on displaced geometry 305 (of 414) >>
	<< Calculating gradient on displaced geometry 306 (of 414) >>
	<< Calculating gradient on displaced geometry 307 (of 414) >>
	<< Calculating gradient on displaced geometry 308 (of 414) >>
	<< Calculating gradient on displaced geometry 309 (of 414) >>
	<< Calculating gradient on displaced geometry 310 (of 414) >>
	<< Calculating gradient on displaced geometry 311 (of 414) >>
	<< Calculating gradient on displaced geometry 312 (of 414) >>
	<< Calculating gradient on displaced geometry 313 (of 414) >>
	<< Calculating gradient on displaced geometry 314 (of 414) >>
	<< Calculating gradient on displaced geometry 315 (of 414) >>
	<< Calculating gradient on displaced geometry 316 (of 414) >>
	<< Calculating gradient on displaced geometry 317 (of 414) >>
	<< Calculating gradient on displaced geometry 318 (of 414) >>
	<< Calculating gradient on displaced geometry 319 (of 414) >>
	<< Calculating gradient on displaced geometry 320 (of 414) >>
	<< Calculating gradient on displaced geometry 321 (of 414) >>
	<< Calculating gradient on displaced geometry 322 (of 414) >>
	<< Calculating gradient on displaced geometry 323 (of 414) >>
	<< Calculating gradient on displaced geometry 324 (of 414) >>
	<< Calculating gradient on displaced geometry 325 (of 414) >>
	<< Calculating gradient on displaced geometry 326 (of 414) >>
	<< Calculating gradient on displaced geometry 327 (of 414) >>
	<< Calculating gradient on displaced geometry 328 (of 414) >>
	<< Calculating gradient on displaced geometry 329 (of 414) >>
	<< Calculating gradient on displaced geometry 330 (of 414) >>
	<< Calculating gradient on displaced geometry 331 (of 414) >>
	<< Calculating gradient on displaced geometry 332 (of 414) >>
	<< Calculating gradient on displaced geometry 333 (of 414) >>
	<< Calculating gradient on displaced geometry 334 (of 414) >>
	<< Calculating gradient on displaced geometry 335 (of 414) >>
	<< Calculating gradient on displaced geometry 336 (of 414) >>
	<< Calculating gradient on displaced geometry 337 (of 414) >>
	<< Calculating gradient on displaced geometry 338 (of 414) >>
	<< Calculating gradient on displaced geometry 339 (of 414) >>
	<< Calculating gradient on displaced geometry 340 (of 414) >>
	<< Calculating gradient on displaced geometry 341 (of 414) >>
	<< Calculating gradient on displaced geometry 342 (of 414) >>
	<< Calculating gradient on displaced geometry 343 (of 414) >>
	<< Calculating gradient on displaced geometry 344 (of 414) >>
	<< Calculating gradient on displaced geometry 345 (of 414) >>
	<< Calculating gradient on displaced geometry 346 (of 414) >>
	<< Calculating gradient on displaced geometry 347 (of 414) >>
	<< Calculating gradient on displaced geometry 348 (of 414) >>
	<< Calculating gradient on displaced geometry 349 (of 414) >>
	<< Calculating gradient on displaced geometry 350 (of 414) >>
	<< Calculating gradient on displaced geometry 351 (of 414) >>
	<< Calculating gradient on displaced geometry 352 (of 414) >>
	<< Calculating gradient on displaced geometry 353 (of 414) >>
	<< Calculating gradient on displaced geometry 354 (of 414) >>
	<< Calculating gradient on displaced geometry 355 (of 414) >>
	<< Calculating gradient on displaced geometry 356 (of 414) >>
	<< Calculating gradient on displaced geometry 357 (of 414) >>
	<< Calculating gradient on displaced geometry 358 (of 414) >>
	<< Calculating gradient on displaced geometry 359 (of 414) >>
	<< Calculating gradient on displaced geometry 360 (of 414) >>
	<< Calculating gradient on displaced geometry 361 (of 414) >>
	<< Calculating gradient on displaced geometry 362 (of 414) >>
	<< Calculating gradient on displaced geometry 363 (of 414) >>
	<< Calculating gradient on displaced geometry 364 (of 414) >>
	<< Calculating gradient on displaced geometry 365 (of 414) >>
	<< Calculating gradient on displaced geometry 366 (of 414) >>
	<< Calculating gradient on displaced geometry 367 (of 414) >>
	<< Calculating gradient on displaced geometry 368 (of 414) >>
	<< Calculating gradient on displaced geometry 369 (of 414) >>
	<< Calculating gradient on displaced geometry 370 (of 414) >>
	<< Calculating gradient on displaced geometry 371 (of 414) >>
	<< Calculating gradient on displaced geometry 372 (of 414) >>
	<< Calculating gradient on displaced geometry 373 (of 414) >>
	<< Calculating gradient on displaced geometry 374 (of 414) >>
	<< Calculating gradient on displaced geometry 375 (of 414) >>
	<< Calculating gradient on displaced geometry 376 (of 414) >>
	<< Calculating gradient on displaced geometry 377 (of 414) >>
	<< Calculating gradient on displaced geometry 378 (of 414) >>
	<< Calculating gradient on displaced geometry 379 (of 414) >>
	<< Calculating gradient on displaced geometry 380 (of 414) >>
	<< Calculating gradient on displaced geometry 381 (of 414) >>
	<< Calculating gradient on displaced geometry 382 (of 414) >>
	<< Calculating gradient on displaced geometry 383 (of 414) >>
	<< Calculating gradient on displaced geometry 384 (of 414) >>
	<< Calculating gradient on displaced geometry 385 (of 414) >>
	<< Calculating gradient on displaced geometry 386 (of 414) >>
	<< Calculating gradient on displaced geometry 387 (of 414) >>
	<< Calculating gradient on displaced geometry 388 (of 414) >>
	<< Calculating gradient on displaced geometry 389 (of 414) >>
	<< Calculating gradient on displaced geometry 390 (of 414) >>
	<< Calculating gradient on displaced geometry 391 (of 414) >>
	<< Calculating gradient on displaced geometry 392 (of 414) >>
	<< Calculating gradient on displaced geometry 393 (of 414) >>
	<< Calculating gradient on displaced geometry 394 (of 414) >>
	<< Calculating gradient on displaced geometry 395 (of 414) >>
	<< Calculating gradient on displaced geometry 396 (of 414) >>
	<< Calculating gradient on displaced geometry 397 (of 414) >>
	<< Calculating gradient on displaced geometry 398 (of 414) >>
	<< Calculating gradient on displaced geometry 399 (of 414) >>
	<< Calculating gradient on displaced geometry 400 (of 414) >>
	<< Calculating gradient on displaced geometry 401 (of 414) >>
	<< Calculating gradient on displaced geometry 402 (of 414) >>
	<< Calculating gradient on displaced geometry 403 (of 414) >>
	<< Calculating gradient on displaced geometry 404 (of 414) >>
	<< Calculating gradient on displaced geometry 405 (of 414) >>
	<< Calculating gradient on displaced geometry 406 (of 414) >>
	<< Calculating gradient on displaced geometry 407 (of 414) >>
	<< Calculating gradient on displaced geometry 408 (of 414) >>
	<< Calculating gradient on displaced geometry 409 (of 414) >>
	<< Calculating gradient on displaced geometry 410 (of 414) >>
	<< Calculating gradient on displaced geometry 411 (of 414) >>
	<< Calculating gradient on displaced geometry 412 (of 414) >>
	<< Calculating gradient on displaced geometry 413 (of 414) >>
	<< Calculating gradient on displaced geometry 414 (of 414) >>

-----------------------
VIBRATIONAL FREQUENCIES
-----------------------

Scaling factor for frequencies =  1.000000000  (already applied!)

     0:       0.00 cm**-1
     1:       0.00 cm**-1
     2:       0.00 cm**-1
     3:       0.00 cm**-1
     4:       0.00 cm**-1
     5:       0.00 cm**-1
     6:     -86.82 cm**-1  ***imaginary mode***
     7:      19.90 cm**-1
     8:      31.32 cm**-1
     9:      40.87 cm**-1
    10:      43.93 cm**-1
    11:      64.76 cm**-1
    12:      75.26 cm**-1
    13:      81.51 cm**-1
    14:      85.97 cm**-1
    15:     100.04 cm**-1
    16:     108.04 cm**-1
    17:     133.06 cm**-1
    18:     138.22 cm**-1
    19:     153.53 cm**-1
    20:     168.56 cm**-1
    21:     183.90 cm**-1
    22:     190.58 cm**-1
    23:     217.35 cm**-1
    24:     219.21 cm**-1
    25:     231.07 cm**-1
    26:     236.60 cm**-1
    27:     247.84 cm**-1
    28:     254.43 cm**-1
    29:     273.84 cm**-1
    30:     285.49 cm**-1
    31:     292.80 cm**-1
    32:     296.42 cm**-1
    33:     298.67 cm**-1
    34:     306.72 cm**-1
    35:     307.13 cm**-1
    36:     317.26 cm**-1
    37:     323.90 cm**-1
    38:     326.80 cm**-1
    39:     331.12 cm**-1
    40:     350.67 cm**-1
    41:     351.02 cm**-1
    42:     366.09 cm**-1
    43:     372.67 cm**-1
    44:     383.65 cm**-1
    45:     390.46 cm**-1
    46:     396.38 cm**-1
    47:     397.86 cm**-1
    48:     405.34 cm**-1
    49:     450.76 cm**-1
    50:     461.29 cm**-1
    51:     479.37 cm**-1
    52:     490.49 cm**-1
    53:     497.86 cm**-1
    54:     505.42 cm**-1
    55:     523.39 cm**-1
    56:     528.84 cm**-1
    57:     539.85 cm**-1
    58:     569.93 cm**-1
    59:     581.59 cm**-1
    60:     584.16 cm**-1
    61:     590.34 cm**-1
    62:     603.03 cm**-1
    63:     623.13 cm**-1
    64:     656.41 cm**-1
    65:     685.39 cm**-1
    66:     692.07 cm**-1
    67:     737.13 cm**-1
    68:     746.97 cm**-1
    69:     765.36 cm**-1
    70:     774.76 cm**-1
    71:     777.78 cm**-1
    72:     788.53 cm**-1
    73:     795.10 cm**-1
    74:     806.53 cm**-1
    75:     827.21 cm**-1
    76:     848.85 cm**-1
    77:     866.40 cm**-1
    78:     882.59 cm**-1
    79:     888.20 cm**-1
    80:     901.40 cm**-1
    81:     909.73 cm**-1
    82:     913.66 cm**-1
    83:     919.49 cm**-1
    84:     929.05 cm**-1
    85:     930.87 cm**-1
    86:     938.59 cm**-1
    87:     941.92 cm**-1
    88:     945.28 cm**-1
    89:     960.56 cm**-1
    90:     973.48 cm**-1
    91:     976.88 cm**-1
    92:     983.05 cm**-1
    93:     987.06 cm**-1
    94:     990.22 cm**-1
    95:    1000.64 cm**-1
    96:    1004.24 cm**-1
    97:    1006.34 cm**-1
    98:    1012.20 cm**-1
    99:    1015.12 cm**-1
   100:    1025.98 cm**-1
   101:    1032.17 cm**-1
   102:    1041.92 cm**-1
   103:    1081.96 cm**-1
   104:    1088.44 cm**-1
   105:    1091.39 cm**-1
   106:    1098.79 cm**-1
   107:    1108.26 cm**-1
   108:    1122.62 cm**-1
   109:    1128.09 cm**-1
   110:    1138.52 cm**-1
   111:    1149.74 cm**-1
   112:    1168.89 cm**-1
   113:    1174.79 cm**-1
   114:    1179.75 cm**-1
   115:    1194.73 cm**-1
   116:    1199.97 cm**-1
   117:    1202.60 cm**-1
   118:    1215.85 cm**-1
   119:    1220.66 cm**-1
   120:    1244.91 cm**-1
   121:    1245.49 cm**-1
   122:    1251.98 cm**-1
   123:    1253.71 cm**-1
   124:    1267.13 cm**-1
   125:    1276.13 cm**-1
   126:    1284.55 cm**-1
   127:    1285.76 cm**-1
   128:    1293.20 cm**-1
   129:    1301.74 cm**-1
   130:    1302.98 cm**-1
   131:    1313.74 cm**-1
   132:    1320.66 cm**-1
   133:    1333.50 cm**-1
   134:    1354.97 cm**-1
   135:    1356.37 cm**-1
   136:    1371.55 cm**-1
   137:    1381.49 cm**-1
   138:    1387.96 cm**-1
   139:    1395.01 cm**-1
   140:    1396.06 cm**-1
   141:    1398.96 cm**-1
   142:    1403.51 cm**-1
   143:    1406.98 cm**-1
   144:    1409.12 cm**-1
   145:    1415.02 cm**-1
   146:    1446.77 cm**-1
   147:    1461.14 cm**-1
   148:    1462.59 cm**-1
   149:    1465.22 cm**-1
   150:    1468.77 cm**-1
   151:    1470.53 cm**-1
   152:    1473.64 cm**-1
   153:    1474.48 cm**-1
   154:    1474.68 cm**-1
   155:    1476.00 cm**-1
   156:    1478.86 cm**-1
   157:    1484.26 cm**-1
   158:    1490.54 cm**-1
   159:    1491.89 cm**-1
   160:    1492.65 cm**-1
   161:    1495.59 cm**-1
   162:    1496.18 cm**-1
   163:    1498.78 cm**-1
   164:    1500.02 cm**-1
   165:    1506.85 cm**-1
   166:    1511.33 cm**-1
   167:    1527.02 cm**-1
   168:    1528.97 cm**-1
   169:    1632.37 cm**-1
   170:    1665.62 cm**-1
   171:    2397.42 cm**-1
   172:    2664.16 cm**-1
   173:    3041.66 cm**-1
   174:    3044.02 cm**-1
   175:    3045.86 cm**-1
   176:    3049.19 cm**-1
   177:    3051.29 cm**-1
   178:    3051.98 cm**-1
   179:    3054.05 cm**-1
   180:    3056.62 cm**-1
   181:    3059.20 cm**-1
   182:    3062.16 cm**-1
   183:    3062.52 cm**-1
   184:    3069.80 cm**-1
   185:    3084.88 cm**-1
   186:    3097.69 cm**-1
   187:    3108.41 cm**-1
   188:    3108.81 cm**-1
   189:    3114.31 cm**-1
   190:    3117.71 cm**-1
   191:    3123.66 cm**-1
   192:    3124.88 cm**-1
   193:    3127.37 cm**-1
   194:    3128.38 cm**-1
   195:    3131.28 cm**-1
   196:    3133.49 cm**-1
   197:    3133.60 cm**-1
   198:    3134.17 cm**-1
   199:    3137.44 cm**-1
   200:    3144.66 cm**-1
   201:    3150.96 cm**-1
   202:    3151.34 cm**-1
   203:    3171.85 cm**-1
   204:    3183.96 cm**-1
   205:    3195.02 cm**-1
   206:    3207.79 cm**-1
   207:    3230.70 cm**-1
   208:    3241.00 cm**-1
   209:    3254.50 cm**-1


------------
NORMAL MODES
------------

These modes are the Cartesian displacements weighted by the diagonal matrix
M(i,i)=1/sqrt(m[i]) where m[i] is the mass of the displaced atom
Thus, these vectors are normalized but *not* orthogonal

                  0          1          2          3          4          5    
      0       0.000000   0.000000   0.000000   0.000000   0.000000   0.000000
      1       0.000000   0.000000   0.000000   0.000000   0.000000   0.000000
      2       0.000000   0.000000   0.000000   0.000000   0.000000   0.000000
      3       0.000000   0.000000   0.000000   0.000000   0.000000   0.000000
      4       0.000000   0.000000   0.000000   0.000000   0.000000   0.000000
      5       0.000000   0.000000   0.000000   0.000000   0.000000   0.000000
      6       0.000000   0.000000   0.000000   0.000000   0.000000   0.000000
      7       0.000000   0.000000   0.000000   0.000000   0.000000   0.000000
      8       0.000000   0.000000   0.000000   0.000000   0.000000   0.000000
      9       0.000000   0.000000   0.000000   0.000000   0.000000   0.000000
     10       0.000000   0.000000   0.000000   0.000000   0.000000   0.000000
     11       0.000000   0.000000   0.000000   0.000000   0.000000   0.000000
     12       0.000000   0.000000   0.000000   0.000000   0.000000   0.000000
     13       0.000000   0.000000   0.000000   0.000000   0.000000   0.000000
     14       0.000000   0.000000   0.000000   0.000000   0.000000   0.000000
     15       0.000000   0.000000   0.000000   0.000000   0.000000   0.000000
     16       0.000000   0.000000   0.000000   0.000000   0.000000   0.000000
     17       0.000000   0.000000   0.000000   0.000000   0.000000   0.000000
     18       0.000000   0.000000   0.000000   0.000000   0.000000   0.000000
     19       0.000000   0.000000   0.000000   0.000000   0.000000   0.000000
     20       0.000000   0.000000   0.000000   0.000000   0.000000   0.000000
     21       0.000000   0.000000   0.000000   0.000000   0.000000   0.000000
     22       0.000000   0.000000   0.000000   0.000000   0.000000   0.000000
     23       0.000000   0.000000   0.000000   0.000000   0.000000   0.000000
     24       0.000000   0.000000   0.000000   0.000000   0.000000   0.000000
     25       0.000000   0.000000   0.000000   0.000000   0.000000   0.000000
     26       0.000000   0.000000   0.000000   0.000000   0.000000   0.000000
     27       0.000000   0.000000   0.000000   0.000000   0.000000   0.000000
     28       0.000000   0.000000   0.000000   0.000000   0.000000   0.000000
     29       0.000000   0.000000   0.000000   0.000000   0.000000   0.000000
     30       0.000000   0.000000   0.000000   0.000000   0.000000   0.000000
     31       0.000000   0.000000   0.000000   0.000000   0.000000   0.000000
     32       0.000000   0.000000   0.000000   0.000000   0.000000   0.000000
     33       0.000000   0.000000   0.000000   0.000000   0.000000   0.000000
     34       0.000000   0.000000   0.000000   0.000000   0.000000   0.000000
     35       0.000000   0.000000   0.000000   0.000000   0.000000   0.000000
     36       0.000000   0.000000   0.000000   0.000000   0.000000   0.000000
     37       0.000000   0.000000   0.000000   0.000000   0.000000   0.000000
     38       0.000000   0.000000   0.000000   0.000000   0.000000   0.000000
     39       0.000000   0.000000   0.000000   0.000000   0.000000   0.000000
     40       0.000000   0.000000   0.000000   0.000000   0.000000   0.000000
     41       0.000000   0.000000   0.000000   0.000000   0.000000   0.000000
     42       0.000000   0.000000   0.000000   0.000000   0.000000   0.000000
     43       0.000000   0.000000   0.000000   0.000000   0.000000   0.000000
     44       0.000000   0.000000   0.000000   0.000000   0.000000   0.000000
     45       0.000000   0.000000   0.000000   0.000000   0.000000   0.000000
     46       0.000000   0.000000   0.000000   0.000000   0.000000   0.000000
     47       0.000000   0.000000   0.000000   0.000000   0.000000   0.000000
     48       0.000000   0.000000   0.000000   0.000000   0.000000   0.000000
     49       0.000000   0.000000   0.000000   0.000000   0.000000   0.000000
     50       0.000000   0.000000   0.000000   0.000000   0.000000   0.000000
     51       0.000000   0.000000   0.000000   0.000000   0.000000   0.000000
     52       0.000000   0.000000   0.000000   0.000000   0.000000   0.000000
     53       0.000000   0.000000   0.000000   0.000000   0.000000   0.000000
     54       0.000000   0.000000   0.000000   0.000000   0.000000   0.000000
     55       0.000000   0.000000   0.000000   0.000000   0.000000   0.000000
     56       0.000000   0.000000   0.000000   0.000000   0.000000   0.000000
     57       0.000000   0.000000   0.000000   0.000000   0.000000   0.000000
     58       0.000000   0.000000   0.000000   0.000000   0.000000   0.000000
     59       0.000000   0.000000   0.000000   0.000000   0.000000   0.000000
     60       0.000000   0.000000   0.000000   0.000000   0.000000   0.000000
     61       0.000000   0.000000   0.000000   0.000000   0.000000   0.000000
     62       0.000000   0.000000   0.000000   0.000000   0.000000   0.000000
     63       0.000000   0.000000   0.000000   0.000000   0.000000   0.000000
     64       0.000000   0.000000   0.000000   0.000000   0.000000   0.000000
     65       0.000000   0.000000   0.000000   0.000000   0.000000   0.000000
     66       0.000000   0.000000   0.000000   0.000000   0.000000   0.000000
     67       0.000000   0.000000   0.000000   0.000000   0.000000   0.000000
     68       0.000000   0.000000   0.000000   0.000000   0.000000   0.000000
     69       0.000000   0.000000   0.000000   0.000000   0.000000   0.000000
     70       0.000000   0.000000   0.000000   0.000000   0.000000   0.000000
     71       0.000000   0.000000   0.000000   0.000000   0.000000   0.000000
     72       0.000000   0.000000   0.000000   0.000000   0.000000   0.000000
     73       0.000000   0.000000   0.000000   0.000000   0.000000   0.000000
     74       0.000000   0.000000   0.000000   0.000000   0.000000   0.000000
     75       0.000000   0.000000   0.000000   0.000000   0.000000   0.000000
     76       0.000000   0.000000   0.000000   0.000000   0.000000   0.000000
[...]
188:   3108.81   0.000000    0.00  0.000000  ( 0.000000  0.000000  0.000000)
189:   3114.31   0.000000    0.00  0.000000  ( 0.000000  0.000000  0.000000)
190:   3117.71   0.000000    0.00  0.000000  ( 0.000000  0.000000  0.000000)
191:   3123.66   0.000000    0.00  0.000000  ( 0.000000  0.000000  0.000000)
192:   3124.88   0.000000    0.00  0.000000  ( 0.000000  0.000000  0.000000)
193:   3127.37   0.000000    0.00  0.000000  ( 0.000000  0.000000  0.000000)
194:   3128.38   0.000000    0.00  0.000000  ( 0.000000  0.000000  0.000000)
195:   3131.28   0.000000    0.00  0.000000  ( 0.000000  0.000000  0.000000)
196:   3133.49   0.000000    0.00  0.000000  ( 0.000000  0.000000  0.000000)
197:   3133.60   0.000000    0.00  0.000000  ( 0.000000  0.000000  0.000000)
198:   3134.17   0.000000    0.00  0.000000  ( 0.000000  0.000000  0.000000)
199:   3137.44   0.000000    0.00  0.000000  ( 0.000000  0.000000  0.000000)
200:   3144.66   0.000000    0.00  0.000000  ( 0.000000  0.000000  0.000000)
201:   3150.96   0.000000    0.00  0.000000  ( 0.000000  0.000000  0.000000)
202:   3151.34   0.000000    0.00  0.000000  ( 0.000000  0.000000  0.000000)
203:   3171.85   0.000000    0.00  0.000000  ( 0.000000  0.000000  0.000000)
204:   3183.96   0.000000    0.00  0.000000  ( 0.000000  0.000000  0.000000)
205:   3195.02   0.000000    0.00  0.000000  ( 0.000000  0.000000  0.000000)
206:   3207.79   0.000000    0.00  0.000000  ( 0.000000  0.000000  0.000000)
207:   3230.70   0.000000    0.00  0.000000  ( 0.000000  0.000000  0.000000)
208:   3241.00   0.000000    0.00  0.000000  ( 0.000000  0.000000  0.000000)
209:   3254.50   0.000000    0.00  0.000000  ( 0.000000  0.000000  0.000000)

* The epsilon (eps) is given for a Dirac delta lineshape.
** The dipole moment derivative (T) already includes vibrational overlap.

The first frequency considered to be a vibration is 7
The total number of vibrations considered is 203


--------------------------
THERMOCHEMISTRY AT 298.15K
--------------------------

Temperature         ...   298.15 K
Pressure            ...     1.00 atm
Total Mass          ...   439.27 AMU
Quasi RRHO          ...     True
Cut-Off Frequency   ...     1.00 cm^-1

Throughout the following assumptions are being made:
  (1) The electronic state is orbitally nondegenerate
  (2) There are no thermally accessible electronically excited states
  (3) Hindered rotations indicated by low frequency modes are not
      treated as such but are treated as vibrations and this may
      cause some error
  (4) All equations used are the standard statistical mechanics
      equations for an ideal gas
  (5) All vibrations are strictly harmonic

freq.      19.90  E(vib)   ...       0.56 
freq.      31.32  E(vib)   ...       0.55 
freq.      40.87  E(vib)   ...       0.54 
freq.      43.93  E(vib)   ...       0.53 
freq.      64.76  E(vib)   ...       0.50 
freq.      75.26  E(vib)   ...       0.49 
freq.      81.51  E(vib)   ...       0.48 
freq.      85.97  E(vib)   ...       0.48 
freq.     100.04  E(vib)   ...       0.46 
freq.     108.04  E(vib)   ...       0.45 
freq.     133.06  E(vib)   ...       0.42 
freq.     138.22  E(vib)   ...       0.42 
freq.     153.53  E(vib)   ...       0.40 
freq.     168.56  E(vib)   ...       0.38 
freq.     183.90  E(vib)   ...       0.37 
freq.     190.58  E(vib)   ...       0.36 
freq.     217.35  E(vib)   ...       0.34 
freq.     219.21  E(vib)   ...       0.33 
freq.     231.07  E(vib)   ...       0.32 
freq.     236.60  E(vib)   ...       0.32 
freq.     247.84  E(vib)   ...       0.31 
freq.     254.43  E(vib)   ...       0.30 
freq.     273.84  E(vib)   ...       0.28 
freq.     285.49  E(vib)   ...       0.28 
freq.     292.80  E(vib)   ...       0.27 
freq.     296.42  E(vib)   ...       0.27 
freq.     298.67  E(vib)   ...       0.26 
freq.     306.72  E(vib)   ...       0.26 
freq.     307.13  E(vib)   ...       0.26 
freq.     317.26  E(vib)   ...       0.25 
freq.     323.90  E(vib)   ...       0.25 
freq.     326.80  E(vib)   ...       0.24 
freq.     331.12  E(vib)   ...       0.24 
freq.     350.67  E(vib)   ...       0.23 
freq.     351.02  E(vib)   ...       0.23 
freq.     366.09  E(vib)   ...       0.22 
freq.     372.67  E(vib)   ...       0.21 
freq.     383.65  E(vib)   ...       0.20 
freq.     390.46  E(vib)   ...       0.20 
freq.     396.38  E(vib)   ...       0.20 
freq.     397.86  E(vib)   ...       0.20 
freq.     405.34  E(vib)   ...       0.19 
freq.     450.76  E(vib)   ...       0.17 
freq.     461.29  E(vib)   ...       0.16 
freq.     479.37  E(vib)   ...       0.15 
freq.     490.49  E(vib)   ...       0.15 
freq.     497.86  E(vib)   ...       0.14 
freq.     505.42  E(vib)   ...       0.14 
freq.     523.39  E(vib)   ...       0.13 
freq.     528.84  E(vib)   ...       0.13 
freq.     539.85  E(vib)   ...       0.12 
freq.     569.93  E(vib)   ...       0.11 
freq.     581.59  E(vib)   ...       0.11 
freq.     584.16  E(vib)   ...       0.11 
freq.     590.34  E(vib)   ...       0.10 
freq.     603.03  E(vib)   ...       0.10 
freq.     623.13  E(vib)   ...       0.09 
freq.     656.41  E(vib)   ...       0.08 
freq.     685.39  E(vib)   ...       0.07 
freq.     692.07  E(vib)   ...       0.07 
freq.     737.13  E(vib)   ...       0.06 
freq.     746.97  E(vib)   ...       0.06 
freq.     765.36  E(vib)   ...       0.06 
freq.     774.76  E(vib)   ...       0.05 
freq.     777.78  E(vib)   ...       0.05 
freq.     788.53  E(vib)   ...       0.05 
freq.     795.10  E(vib)   ...       0.05 
freq.     806.53  E(vib)   ...       0.05 
freq.     827.21  E(vib)   ...       0.04 
freq.     848.85  E(vib)   ...       0.04 
freq.     866.40  E(vib)   ...       0.04 
freq.     882.59  E(vib)   ...       0.04 
freq.     888.20  E(vib)   ...       0.04 
freq.     901.40  E(vib)   ...       0.03 
freq.     909.73  E(vib)   ...       0.03 
freq.     913.66  E(vib)   ...       0.03 
freq.     919.49  E(vib)   ...       0.03 
freq.     929.05  E(vib)   ...       0.03 
freq.     930.87  E(vib)   ...       0.03 
freq.     938.59  E(vib)   ...       0.03 
freq.     941.92  E(vib)   ...       0.03 
freq.     945.28  E(vib)   ...       0.03 
freq.     960.56  E(vib)   ...       0.03 
freq.     973.48  E(vib)   ...       0.03 
freq.     976.88  E(vib)   ...       0.03 
freq.     983.05  E(vib)   ...       0.02 
freq.     987.06  E(vib)   ...       0.02 
freq.     990.22  E(vib)   ...       0.02 
freq.    1000.64  E(vib)   ...       0.02 
freq.    1004.24  E(vib)   ...       0.02 
freq.    1006.34  E(vib)   ...       0.02 
freq.    1012.20  E(vib)   ...       0.02 
freq.    1015.12  E(vib)   ...       0.02 
freq.    1025.98  E(vib)   ...       0.02 
freq.    1032.17  E(vib)   ...       0.02 
freq.    1041.92  E(vib)   ...       0.02 
freq.    1081.96  E(vib)   ...       0.02 
freq.    1088.44  E(vib)   ...       0.02 
freq.    1091.39  E(vib)   ...       0.02 
freq.    1098.79  E(vib)   ...       0.02 
freq.    1108.26  E(vib)   ...       0.02 
freq.    1122.62  E(vib)   ...       0.01 
freq.    1128.09  E(vib)   ...       0.01 
freq.    1138.52  E(vib)   ...       0.01 
freq.    1149.74  E(vib)   ...       0.01 
freq.    1168.89  E(vib)   ...       0.01 
freq.    1174.79  E(vib)   ...       0.01 
freq.    1179.75  E(vib)   ...       0.01 
freq.    1194.73  E(vib)   ...       0.01 
freq.    1199.97  E(vib)   ...       0.01 
freq.    1202.60  E(vib)   ...       0.01 
freq.    1215.85  E(vib)   ...       0.01 
freq.    1220.66  E(vib)   ...       0.01 
freq.    1244.91  E(vib)   ...       0.01 
freq.    1245.49  E(vib)   ...       0.01 
freq.    1251.98  E(vib)   ...       0.01 
freq.    1253.71  E(vib)   ...       0.01 
freq.    1267.13  E(vib)   ...       0.01 
freq.    1276.13  E(vib)   ...       0.01 
freq.    1284.55  E(vib)   ...       0.01 
freq.    1285.76  E(vib)   ...       0.01 
freq.    1293.20  E(vib)   ...       0.01 
freq.    1301.74  E(vib)   ...       0.01 
freq.    1302.98  E(vib)   ...       0.01 
freq.    1313.74  E(vib)   ...       0.01 
freq.    1320.66  E(vib)   ...       0.01 
freq.    1333.50  E(vib)   ...       0.01 
freq.    1354.97  E(vib)   ...       0.01 
freq.    1356.37  E(vib)   ...       0.01 
freq.    1371.55  E(vib)   ...       0.01 
freq.    1381.49  E(vib)   ...       0.01 
freq.    1387.96  E(vib)   ...       0.00 
freq.    1395.01  E(vib)   ...       0.00 
freq.    1396.06  E(vib)   ...       0.00 
freq.    1398.96  E(vib)   ...       0.00 
freq.    1403.51  E(vib)   ...       0.00 
freq.    1406.98  E(vib)   ...       0.00 
freq.    1409.12  E(vib)   ...       0.00 
freq.    1415.02  E(vib)   ...       0.00 
freq.    1446.77  E(vib)   ...       0.00 
freq.    1461.14  E(vib)   ...       0.00 
freq.    1462.59  E(vib)   ...       0.00 
freq.    1465.22  E(vib)   ...       0.00 
freq.    1468.77  E(vib)   ...       0.00 
freq.    1470.53  E(vib)   ...       0.00 
freq.    1473.64  E(vib)   ...       0.00 
freq.    1474.48  E(vib)   ...       0.00 
freq.    1474.68  E(vib)   ...       0.00 
freq.    1476.00  E(vib)   ...       0.00 
freq.    1478.86  E(vib)   ...       0.00 
freq.    1484.26  E(vib)   ...       0.00 
freq.    1490.54  E(vib)   ...       0.00 
freq.    1491.89  E(vib)   ...       0.00 
freq.    1492.65  E(vib)   ...       0.00 
freq.    1495.59  E(vib)   ...       0.00 
freq.    1496.18  E(vib)   ...       0.00 
freq.    1498.78  E(vib)   ...       0.00 
freq.    1500.02  E(vib)   ...       0.00 
freq.    1506.85  E(vib)   ...       0.00 
freq.    1511.33  E(vib)   ...       0.00 
freq.    1527.02  E(vib)   ...       0.00 
freq.    1528.97  E(vib)   ...       0.00 
freq.    1632.37  E(vib)   ...       0.00 
freq.    1665.62  E(vib)   ...       0.00 
freq.    2397.42  E(vib)   ...       0.00 
freq.    2664.16  E(vib)   ...       0.00 
freq.    3041.66  E(vib)   ...       0.00 
freq.    3044.02  E(vib)   ...       0.00 
freq.    3045.86  E(vib)   ...       0.00 
freq.    3049.19  E(vib)   ...       0.00 
freq.    3051.29  E(vib)   ...       0.00 
freq.    3051.98  E(vib)   ...       0.00 
freq.    3054.05  E(vib)   ...       0.00 
freq.    3056.62  E(vib)   ...       0.00 
freq.    3059.20  E(vib)   ...       0.00 
freq.    3062.16  E(vib)   ...       0.00 
freq.    3062.52  E(vib)   ...       0.00 
freq.    3069.80  E(vib)   ...       0.00 
freq.    3084.88  E(vib)   ...       0.00 
freq.    3097.69  E(vib)   ...       0.00 
freq.    3108.41  E(vib)   ...       0.00 
freq.    3108.81  E(vib)   ...       0.00 
freq.    3114.31  E(vib)   ...       0.00 
freq.    3117.71  E(vib)   ...       0.00 
freq.    3123.66  E(vib)   ...       0.00 
freq.    3124.88  E(vib)   ...       0.00 
freq.    3127.37  E(vib)   ...       0.00 
freq.    3128.38  E(vib)   ...       0.00 
freq.    3131.28  E(vib)   ...       0.00 
freq.    3133.49  E(vib)   ...       0.00 
freq.    3133.60  E(vib)   ...       0.00 
freq.    3134.17  E(vib)   ...       0.00 
freq.    3137.44  E(vib)   ...       0.00 
freq.    3144.66  E(vib)   ...       0.00 
freq.    3150.96  E(vib)   ...       0.00 
freq.    3151.34  E(vib)   ...       0.00 
freq.    3171.85  E(vib)   ...       0.00 
freq.    3183.96  E(vib)   ...       0.00 
freq.    3195.02  E(vib)   ...       0.00 
freq.    3207.79  E(vib)   ...       0.00 
freq.    3230.70  E(vib)   ...       0.00 
freq.    3241.00  E(vib)   ...       0.00 
freq.    3254.50  E(vib)   ...       0.00 

------------
INNER ENERGY
------------

The inner energy is: U= E(el) + E(ZPE) + E(vib) + E(rot) + E(trans)
    E(el)   - is the total energy from the electronic structure calculation
              = E(kin-el) + E(nuc-el) + E(el-el) + E(nuc-nuc)
    E(ZPE)  - the the zero temperature vibrational energy from the frequency calculation
    E(vib)  - the the finite temperature correction to E(ZPE) due to population
              of excited vibrational states
    E(rot)  - is the rotational thermal energy
    E(trans)- is the translational thermal energy

Summary of contributions to the inner energy U:
Electronic energy                ...  -1629.23134277 Eh
Zero point energy                ...      0.60337016 Eh     378.62 kcal/mol
Thermal vibrational correction   ...      0.02847667 Eh      17.87 kcal/mol
Thermal rotational correction    ...      0.00141627 Eh       0.89 kcal/mol
Thermal translational correction ...      0.00141627 Eh       0.89 kcal/mol
-----------------------------------------------------------------------
Total thermal energy                  -1628.59666340 Eh


Summary of corrections to the electronic energy:
(perhaps to be used in another calculation)
Total thermal correction                  0.03130921 Eh      19.65 kcal/mol
Non-thermal (ZPE) correction              0.60337016 Eh     378.62 kcal/mol
-----------------------------------------------------------------------
Total correction                          0.63467937 Eh     398.27 kcal/mol


--------
ENTHALPY
--------

The enthalpy is H = U + kB*T
                kB is Boltzmann's constant
Total thermal energy              ...  -1628.59666340 Eh 
Thermal Enthalpy correction       ...      0.00094421 Eh       0.59 kcal/mol
-----------------------------------------------------------------------
Total Enthalpy                    ...  -1628.59571920 Eh


WARNING (ORCA/SYM): The number of Z matrix atoms does not agree with
the number of centers in the basis set. The point group will therefore
be determined without considering basis set information.


Note: Only C1 symmetry has been detected, increase convergence thresholds 
      if your molecule has a higher symmetry. Symmetry factor of 1.0 is   
      used for the rotational entropy correction. 
 

Note: Rotational entropy computed according to Herzberg 
Infrared and Raman Spectra, Chapter V,1, Van Nostrand Reinhold, 1945 
Point Group:  C1, Symmetry Number:   1  
Rotational constants in cm-1:     0.007577     0.003199     0.003040 

Vibrational entropy computed according to the QRRHO of S. Grimme
Chem.Eur.J. 2012 18 9955 using a reference frequency of 100.0 cm-1


-------
ENTROPY
-------

The entropy contributions are T*S = T*(S(el)+S(vib)+S(rot)+S(trans))
     S(el)   - electronic entropy
     S(vib)  - vibrational entropy
     S(rot)  - rotational entropy
     S(trans)- translational entropy
The entropies will be listed as multiplied by the temperature to get
units of energy

Electronic entropy                ...      0.00000000 Eh      0.00 kcal/mol
Vibrational entropy               ...      0.04910266 Eh     30.81 kcal/mol
Rotational entropy                ...      0.01726406 Eh     10.83 kcal/mol
Translational entropy             ...      0.02096725 Eh     13.16 kcal/mol
-----------------------------------------------------------------------
Final entropy term                ...      0.08733397 Eh     54.80 kcal/mol

In case the symmetry of your molecule has not been determined correctly
or in case you have a reason to use a different symmetry number we print 
out the resulting rotational entropy values for sn=1,12:

 non-linear molecules -----------------------------------
|  sn= 1 | S(rot)=       0.01726406 Eh     10.83 kcal/mol|
|  sn= 2 | S(rot)=       0.01660960 Eh     10.42 kcal/mol|
|  sn= 3 | S(rot)=       0.01622677 Eh     10.18 kcal/mol|
|  sn= 4 | S(rot)=       0.01595515 Eh     10.01 kcal/mol|
|  sn= 5 | S(rot)=       0.01574446 Eh      9.88 kcal/mol|
|  sn= 6 | S(rot)=       0.01557231 Eh      9.77 kcal/mol|
|  sn= 7 | S(rot)=       0.01542677 Eh      9.68 kcal/mol|
|  sn= 8 | S(rot)=       0.01530069 Eh      9.60 kcal/mol|
|  sn= 9 | S(rot)=       0.01518948 Eh      9.53 kcal/mol|
|  sn=10 | S(rot)=       0.01509000 Eh      9.47 kcal/mol|
|  sn=11 | S(rot)=       0.01500001 Eh      9.41 kcal/mol|
|  sn=12 | S(rot)=       0.01491786 Eh      9.36 kcal/mol|
 linear molecules ---------------------------------------
|  Dinfh | S(rot)=       0.01079803 Eh      6.78 kcal/mol|
|  Cinfv | S(rot)=       0.01145249 Eh      7.19 kcal/mol|
 --------------------------------------------------------


-------------------
GIBBS FREE ENERGY
-------------------

The Gibbs free energy is G = H - T*S

Total enthalpy                    ...  -1628.59571920 Eh 
Total entropy correction          ...     -0.08733397 Eh    -54.80 kcal/mol
-----------------------------------------------------------------------
Final Gibbs free energy         ...  -1628.68305316 Eh

For completeness - the Gibbs free energy minus the electronic energy
G-E(el)                           ...      0.54828961 Eh    344.06 kcal/mol



--------------------------------
SUGGESTED CITATIONS FOR THIS RUN
--------------------------------

Below you find a list of papers that are relevant to this ORCA run
We neither can nor want to force you to cite these papers, but we appreciate if you do
You receive ORCA, which is the product of decades of hard work by many enthusiastic individuals, for free
The only thing we kindly ask in return is that you cite our papers,
We deeply appreciate it, if you show your appreciation for ORCA by not just citing the generic ORCA reference.

Please note that relegating all ORCA citations to the supporting information does *not* help us.
SI sections are not indexed - citations you put there will not count into any citation statistics
But we need these citations in order to attract the funding resources that allow us to do what we are doing

Therefore, if you are a happy ORCA user, please consider citing a few of the papers listed below in the main body of your paper

In addition to the list printed below, the program has created the file input.bibtex that contains the list in bibtex format
You can import this file easily into all common literature databanks and citation aid programs


List of essential papers. We consider these as the minimum necessary citations

  1. Neese, F.
     Software update: the ORCA program system, version 6.0
     WIRES Comput. Molec. Sci. 2025 15(1), e70019
     doi.org/10.1002/wcms.7019

List of papers to cite with high priority. The work reported in these papers was absolutely
necessary for this run to complete.
Our perspective: the developers of density functionals and basis sets usually get cited in chemistry papers
Good! But without the algorithms to do something with them, the functionals or basis sets would not do anything.
Hence, in our opinion, the algorithm design and method developments papers are equally worthy of getting cited

  1. Neese, F.
     The SHARK Integral Generation and Digestion System
     J. Comp. Chem. 2022 44(3), 381
     doi.org/10.1002/jcc.26942

List of suggested additional citations. These are papers that are important in the 'surrounding' of 
of this run, or papers that preceded the highly important papers. If you like your results we are grateful for a citation.

  1. Neese, F.
     The ORCA program system
     WIRES Comput. Molec. Sci. 2012 2(1), 73-78
     doi.org/10.1002/wcms.81
  2. Neese, F.
     Software update: the ORCA program system, version 4.0
     WIRES Comput. Molec. Sci. 2018 8(1), 1-6
     doi.org/10.1002/wcms.1327
  3. Neese, F.; Wennmohs, F.; Becker, U.; Riplinger, C.
     The ORCA quantum chemistry program package
     J. Chem. Phys. 2020 152(22), 224108
     doi.org/10.1063/5.0004608
  4. Neese, F.
     Software update: The ORCA program system—Version 5.0
     WIRES Comput. Molec. Sci. 2022 12(1), e1606
     doi.org/10.1002/wcms.1606

List of optional additional citations

  1. Neese, F.
     Approximate second-order SCF convergence for spin unrestricted wavefunctions
     Chem. Phys. Lett. 2000 325(1-3), 93-98
     doi.org/10.1016/s0009-2614(00)00662-x

Timings for individual modules:

Sum of individual times          ...      636.975 sec (=  10.616 min)
Numerical frequency calculation  ...      633.658 sec (=  10.561 min)  99.5 %
External energy and gradient     ...        3.317 sec (=   0.055 min)   0.5 %
                             ****ORCA TERMINATED NORMALLY****
TOTAL RUN TIME: 0 days 0 hours 10 minutes 36 seconds 984 msec
