
                                 *****************
                                 * O   R   C   A *
                                 *****************

                                            #,                                       
                                            ###                                      
                                            ####                                     
                                            #####                                    
                                            ######                                   
                                           ########,                                 
                                     ,,################,,,,,                         
                               ,,#################################,,                 
                          ,,##########################################,,             
                       ,#########################################, ''#####,          
                    ,#############################################,,   '####,        
                  ,##################################################,,,,####,       
                ,###########''''           ''''###############################       
              ,#####''   ,,,,##########,,,,          '''####'''          '####       
            ,##' ,,,,###########################,,,                        '##       
           ' ,,###''''                  '''############,,,                           
         ,,##''                                '''############,,,,        ,,,,,,###''
      ,#''                                            '''#######################'''  
     '                                                          ''''####''''         
             ,#######,   #######,   ,#######,      ##                                
            ,#'     '#,  ##    ##  ,#'     '#,    #''#        ,####,    ,#,          
            ##       ##  ##   ,#'  ##            #'  '#       #'       ,# #          
            ##       ##  #######   ##           ,######,      #####,      #          
            '#,     ,#'  ##    ##  '#,     ,#' ,#      #,     #,   #      #          
             '#######'   ##     ##  '#######'  #'      '#     '####' #    #          



                #########################################################
                #                        -***-                          #
                #          Department of theory and spectroscopy        #
                #                                                       #
                #                      Frank Neese                      #
                #                                                       #
                #     Directorship, Architecture, Infrastructure        #
                #                    SHARK, DRIVERS                     #
                #        Core code/Algorithms in most modules           #
                #                                                       #
                #        Max Planck Institute fuer Kohlenforschung      #
                #                Kaiser Wilhelm Platz 1                 #
                #                 D-45470 Muelheim/Ruhr                 #
                #                      Germany                          #
                #                                                       #
                #                  All rights reserved                  #
                #                        -***-                          #
                #########################################################


                         Program Version 6.1.0  -  RELEASE   -
                                (GIT: $679e74b$)
                          ($2025-06-10 18:02:51 +0200$)


 With contributions from (in alphabetic order):
[Max-Planck-Institut fuer Kohlenforschung]                               
  Daniel Aravena         : Magnetic Suceptibility                        
  Michael Atanasov       : Ab Initio Ligand Field Theory (pilot matlab implementation)
  Alexander A. Auer      : GIAO ZORA, VPT2 properties, NMR spectrum      
  Ute Becker             : All parallelization in ORCA, NUMFREQ, NUMCALC 
  Giovanni Bistoni       : ED, misc. LED, open-shell LED, HFLD           
  Dmytro Bykov           : pre 5.0 version of the SCF Hessian            
  Marcos Casanova-Páez   : Triplet and SCS-CIS(D). UHF-(DLPNO)-IP/EA/STEOM-CCSD. UHF-CVS-IP/STEOM-CCSD   
  Vijay G. Chilkuri      : MRCI spin determinant printing, contributions to CSF-ICE 
  Pauline Colinet        : FMM embedding                                 
  Dipayan Datta          : RHF DLPNO-CCSD density                        
  Achintya Kumar Dutta   : EOM-CC, STEOM-CC                              
  Nicolas Foglia         : Exact transition moments, OPA infrastructure, MCD improvements    
  Dmitry Ganyushin       : Spin-Orbit,Spin-Spin,Magnetic field MRCI      
  Miquel Garcia-Rates    : C-PCM and meta-GGA Hessian, CCSD/C-PCM, Gaussian charge scheme 
  Tiago L. C. Gouveia    : GS-ROHF, GS-ROCIS                             
  Yang Guo               : DLPNO-NEVPT2, F12-NEVPT2, CIM, IAO-localization        
  Andreas Hansen         : Spin unrestricted coupled pair/coupled cluster methods 
  Ingolf Harden          : AUTO-CI MPn and infrastructure                
  Benjamin Helmich-Paris : MC-RPA, TRAH-(SCF,CASSCF), AVAS, COSX integrals, SCF dyn. polar., MC-PDFT, srDFT 
  Lee Huntington         : MR-EOM, pCC                                   
  Robert Izsak           : Overlap fitted RIJCOSX, COSX-SCS-MP3, EOM     
  Riya Kayal             : Wick's Theorem for AUTO-CI, AUTO-CI UHF-CCSDT 
  Emily Kempfer          : AUTO-CI RHF CISDT and CCSDT, approximate NEVPT4
  Christian Kollmar      : KDIIS, OOCD, Brueckner-CCSD(T), CCSD density, CASPT2, CASPT2-K, improved NEVPT2 
  Axel Koslowski         : Symmetry handling                             
  Simone Kossmann        : meta-GGA functionals, TD-DFT gradient, OOMP2, (MP2 Hessian; deprecated post 5.0) 
  Lucas Lang             : DCDCAS, Hyperfine gauge corrections, ICE-SOC+SSC
  Marvin Lechner         : AUTO-CI (C++ implementation), FIC-MRCC        
  Spencer Leger          : CASSCF response                               
  Dagmar Lenk            : GEPOL surface, SMD, ORCA-2-JSON               
  Dimitrios Liakos       : Extrapolation schemes; Compound Job, Property file
  Dimitrios Manganas     : Further ROCIS development; embedding schemes. LFT, Crystal Embedding 
  Dimitrios Pantazis     : SARC Basis sets                               
  Anastasios Papadopoulos: AUTO-CI, single reference methods and gradients 
  Taras Petrenko         : pre 6.0 DFT Hessian and TD-DFT gradient,  ECA, NRVS 
  Petra Pikulova         : Analytic Raman intensities                    
  Peter Pinski           : DLPNO-MP2, DLPNO-MP2 Gradient                 
  Shashank Vittal Rao    : ES-AILFT, MagRelax                            
  Christoph Reimann      : Effective Core Potentials                     
  Marius Retegan         : Local ZFS, SOC                                
  Christoph Riplinger    : Optimizer, TS searches, QM/MM, DLPNO-CCSD(T), (RO)-DLPNO pert. Triples 
  Michael Roemelt        : Original ROCIS implementation, recursive CI coupling coefficients
  Masaaki Saitow         : Open-shell DLPNO-CCSD energy and density      
  Barbara Sandhoefer     : DKH picture change effects                    
  Yorick L. A. Schmerwitz: GMF and freeze-and-release deltaSCF, NEB S-IDPP initial path                    
  Kantharuban Sivalingam : CASSCF convergence/infrastructure, NEVPT2, NEVPT3, NEVPT4(SD), FIC-MRCI and CEPA variants
  Bernardo de Souza      : ESD, SOC TD-DFT                               
  Georgi L. Stoychev     : AutoAux, RI-MP2 NMR, DLPNO-MP2 response, X2C  
  Van Anh Tran           : RI-MP2 g-tensors                              
  Willem Van den Heuvel  : Paramagnetic NMR                              
  Zikuan Wang            : NOTCH, Electric field optimization            
  Frank Wennmohs         : Technical directorship and infrastructure     
  Hang Xu                : AUTO-CI-Response properties                   
                                                                         
[FACCTs GmbH]                                                            
  Markus Bursch, Nicolas Foglia, Miquel Garcia-Rates, Ingolf Harden, Hagen Neugebauer, Anastasios Papadopoulos, 
  Christoph Riplinger, Bernardo de Souza, Georgi L. Stoychev                                                    
                                                                 
  APM, various basis sets, CI-OPT, improved COSX, DLPNO-Multilevel,           
  DOCKER, DRACO, updates on ESD, Fragmentator, GOAT, IRC, LR-CPCM, L-BFGS, MBIS, meta-GGA TD-DFT gradient, ML-optimized integration grids, 
  MM, NACMEs, nearIR, NEB, NEB-TS, NL-DFT gradient (VV10), 2- and 3-layer-ONIOM, interface openCOSMO-RS, QMMM,   
  Crystal-QMMM, RESP, rigid body optimization, SF, symmetry and pop. for TD-DFT, various functionals, SOLVATOR                                   
                                                                         
[Other institutions]                                                     
  V. Asgeirsson          : NEB                                           
  Christoph Bannwarth    : sTDA-DFT, sTD-DFT, PBEh-3c, B97-3c, D3        
  Giovanni Bistoni       : ETS/NOCV, ADLD/ADEX, COVALED                  
  Martin Brehm           : Molecular dynamics                            
  Ronald Cardenas        : ETS/NOCV                                      
  Martina Colucci        : COVALED                                       
  Sebastian Ehlert       : rSCAN, r2SCAN, r2SCAN-3c, D4, dhf basis sets  
  Marvin Friede          : D4 for Fr, Ra, Ac-Lr                          
  Lars Goerigk           : TD-DFT with DH, B97 family of functionals     
  Stefan Grimme          : VdW corrections, initial TS optimization, DFT functionals, gCP, sTDA/sTD-DF 
  Waldemar Hujo          : DFT-NL                                        
  H. Jonsson             : NEB                                           
  Holger Kruse           : gCP                                           
  Marcel Mueller         : wB97X-3c, vDZP basis set                      
  Hagen Neugebauer       : wr2SCAN, Native XTB                           
  Gianluca Regni         : ADLD/ADEX                                     
  Tobias Risthaus        : pre 6.0 range-separated hybrid DFT and stability analysis
  Lukas Wittmann         : regularized MP2, r2SCAN double-hybrids, wr2SCAN        
                                                                         
We gratefully acknowledge several colleagues who have allowed us to      
interface, adapt or use parts of their codes:                            
  Ed Valeev, F. Pavosevic, A. Kumar             : LibInt (2-el integral package), F12 methods 
  Garnet Chan, S. Sharma, J. Yang, R. Olivares  : DMRG                   
  Ulf Ekstrom                                   : XCFun DFT Library      
  Mihaly Kallay                                 : mrcc  (arbitrary order and MRCC methods)
  Frank Weinhold                                : gennbo (NPA and NBO analysis)           
  Simon Mueller                                 : openCOSMO-RS                            
  Christopher J. Cramer and Donald G. Truhlar   : smd solvation model                     
  S Lehtola, MJT Oliveira, MAL Marques          : LibXC Library                           
  Liviu Ungur et al                             : ANISO software                          


 Your calculation uses the libint2 library for the computation of 2-el integrals
 For citations please refer to: http://libint.valeyev.net

 Your ORCA version has been built with support for libXC version: 7.0.0
 For citations please refer to: https://libxc.gitlab.io

 This ORCA versions uses:
   CBLAS   interface :  Fast vector & matrix operations
   LAPACKE interface :  Fast linear algebra routines
   SCALAPACK package :  Parallel linear algebra routines
   Shared memory     :  Shared parallel matrices
   BLAS/LAPACK       :  OpenBLAS 0.3.29  USE64BITINT DYNAMIC_ARCH NO_AFFINITY Haswell SINGLE_THREADED
        Core in use  :  Haswell
   Copyright (c) 2011-2014, The OpenBLAS Project


  ***********************************
  * Starting time: Mon Jul 21 10:39:11 2025
  * Host name:     node316.cluster
  * Process ID:    3860724
  * Working dir.:  /scratch/53127130/_e0ifd0
  ***********************************

NOTE: MaxCore=3840 MB was set to SCF,MP2,MDCI,CIPSI,MRCI,RASCI and CIS
      => If you want to overwrite this, your respective input block should be placed after the MaxCore statement
Your calculation utilizes the atom-pairwise dispersion correction
with the zero-damping scheme (D30)


XCFun DFT library Copyright 2009-2010 Ulf Ekstrom and contributors.
See http://admol.org/xcfun for more information.
This is free software; see the source code for copying conditions.
There is ABSOLUTELY NO WARRANTY; not even for MERCHANTABILITY or FITNESS FOR A PARTICULAR PURPOSE.
For details see the documentation.
Scientific users of this library should cite U. Ekstrom, L. Visscher, R. Bast, A. J. Thorvaldsen and K. Ruud;
J.Chem.Theor.Comp. 2010, DOI: 10.1021/ct100117s
XCFun Version 0.99 

Warning: RI is on but no J-basis has been assigned. Assigning Def2/J (nothing to worry about!)
================================================================================

----- Orbital basis set information -----
Your calculation utilizes the basis: 6-31+G**
   H-He, Li-Ne : W. J. Hehre, R. Ditchfield and J.A. Pople, J. Chem. Phys. 56, 2257 (1972).
                 Note: He and Ne are unpublished basis sets taken from the Gaussian program.
                 Note: Li and B from J. D. Dill and J. A. Pople, J. Chem. Phys. 62, 2921 (1975).
   Na - Ar     : M. M. Francl, W. J. Pietro, W. J. Hehre, J. S. Binkley, M. S. Gordon, 
                 D. J. DeFrees and J. A. Pople, J. Chem. Phys. 77, 3654 (1982).
   K - Zn      : V. A. Rassolov, J. A. Pople, M. A. Ratner, and T. L. Windus, J. Chem. Phys. 109, 1223 (1998).
   Additional Pol./Diff. from the 6-311G equivalent.

----- AuxJ basis set information -----
Your calculation utilizes the auxiliary basis: def2/J
   H-Rn: F. Weigend, Phys. Chem. Chem. Phys. 8, 1057 (2006).
   Fr-Lr: K. Eichkorn, F. Weigend, O. Treutler, R. Ahlrichs; Theor. Chem. Acc. 97, 119 (1997).

================================================================================
                                        WARNINGS
                       Please study these warnings very carefully!
================================================================================


WARNING: Geometry Optimization
  ===> : Switching off AutoStart
         For restart on a previous wavefunction, please use MOREAD

================================================================================
                                       INPUT FILE
================================================================================
NAME = input.inp
|  1> # Automatically generated ORCA input
|  2> 
|  3> # Number of cores
|  4> %pal nprocs 8 end
|  5> # RAM per core
|  6> %maxcore 3840
|  7> 
|  8> ! wB97X-D3 
|  9> ! 6-31+G** 
| 10> ! TightSCF 
| 11> ! OptTS 
| 12> ! Freq 
| 13> ! NoSym 
| 14> 
| 15> %geom
| 16>   Calc_Hess true
| 17> end
| 18> %Output
| 19>   JSONPropFile True
| 20> End
| 21> 
| 22> 
| 23> *xyz 0 1 
| 24> C        -2.05647800     -2.08167000      0.88774500
| 25> C        -0.71541700     -1.70909900      0.93465100
| 26> C        -0.28416500     -0.42133200      0.59501700
| 27> C        -1.26942000      0.52424300      0.22842000
| 28> C        -2.61511000      0.14482000      0.17402200
| 29> C        -3.00706900     -1.15097000      0.49263400
| 30> H        -2.34915900     -3.09576000      1.14202500
| 31> H         0.02192400     -2.45471600      1.21885300
| 32> H        -3.36878200      0.87022100     -0.11326600
| 33> H        -4.05730300     -1.42267800      0.44033700
| 34> B         1.26449900     -0.02546100      0.55323800
| 35> H         1.77671400     -1.14040800     -0.06933200
| 36> C         1.99846100      0.25456400      1.96532400
| 37> C         1.62154400     -0.15575600      3.22695000
| 38> C         2.29477100      0.51050600      4.28186900
| 39> H         0.87672200     -0.92962200      3.37196900
| 40> C         3.18117500      1.44485800      3.81583600
| 41> H         2.12659900      0.31592000      5.33381600
| 42> H         3.81494600      2.09867900      4.39929800
| 43> H         1.62131100      0.73752700     -0.30016300
| 44> B         2.59843600     -1.50111200      0.82101700
| 45> O         3.91458800     -1.36672900      0.48573300
| 46> O         2.30658900     -2.62545900      1.54984300
| 47> C         4.63313800     -2.30158900      1.32578900
| 48> C         3.53597100     -3.38385200      1.63830500
| 49> C         5.83074700     -2.82008000      0.54378100
| 50> H         6.53510700     -2.00356700      0.36766400
| 51> H         6.34785200     -3.60056500      1.11085300
| 52> H         5.53379600     -3.22754400     -0.42357200
| 53> C         5.10362000     -1.54318600      2.56675900
| 54> H         5.69862800     -0.68425300      2.24864800
| 55> H         4.26367600     -1.17124400      3.15862600
| 56> H         5.72435900     -2.18025300      3.20292000
| 57> C         3.62859600     -3.99703200      3.02758200
| 58> H         2.83537300     -4.73762700      3.15694000
| 59> H         4.59101500     -4.50097500      3.16018600
| 60> H         3.51801500     -3.23895800      3.80436100
| 61> C         3.44580100     -4.47859400      0.57559700
| 62> H         4.30831000     -5.14956000      0.61421600
| 63> H         2.54118900     -5.06516300      0.75235900
| 64> H         3.38026500     -4.04842400     -0.42732600
| 65> N        -0.86959100      1.84904700     -0.09622200
| 66> C        -1.72890400      2.59113700     -0.99317300
| 67> H        -2.65414400      2.96578200     -0.51790000
| 68> H        -1.18024500      3.46196100     -1.36638100
| 69> H        -2.00523900      1.96924900     -1.84792500
| 70> C        -0.45923500      2.66057700      1.03950500
| 71> H         0.13245900      3.51327900      0.69010500
| 72> H        -1.32568600      3.04760200      1.60515900
| 73> H         0.15635300      2.07849500      1.72498600
| 74> S         3.19524800      1.51043600      2.10425400
| 75> *
| 76> 
| 77> 
| 78>                          ****END OF INPUT****
================================================================================

                       *****************************
                       * Geometry Optimization Run *
                       *****************************

Geometry optimization settings:
Update method            Update   .... Bofill
Choice of coordinates    CoordSys .... (2022) Redundant Internals
Initial Hessian          InHess   .... Almloef's Model
Max. no of cycles        MaxIter  .... 153

Convergence Tolerances:
Energy Change            TolE     ....  5.0000e-06 Eh
Max. Gradient            TolMAXG  ....  3.0000e-04 Eh/bohr
RMS Gradient             TolRMSG  ....  1.0000e-04 Eh/bohr
Max. Displacement        TolMAXD  ....  4.0000e-03 bohr
RMS Displacement         TolRMSD  ....  2.0000e-03 bohr
Strict Convergence                .... False

------------------------------------------------------------------------------
                        ORCA OPTIMIZATION COORDINATE SETUP
------------------------------------------------------------------------------

The optimization will be done in redundant internal coordinates (2022)
Making redundant internal coordinates   ...  (2022 redundants) done
Following TS mode number                ...     0
Evaluating the initial hessian          ...  (Is done on the fly) done
Evaluating the coordinates              ...  done
Calculating the B-matrix                .... done
Calculating the G-matrix                .... done
The number of degrees of freedom        ....  275

    -----------------------------------------------------------------
                    Redundant Internal Coordinates


    -----------------------------------------------------------------
         Definition                    Initial Value    d2E/dq (diagonal element)
    -----------------------------------------------------------------
      1. B(C   1,C   0)                  1.3926         0.000000   
      2. B(C   2,C   1)                  1.3999         0.000000   
      3. B(C   3,C   2)                  1.4139         0.000000   
      4. B(C   4,C   3)                  1.3992         0.000000   
      5. B(C   5,C   4)                  1.3908         0.000000   
      6. B(C   5,C   0)                  1.3878         0.000000   
      7. B(H   6,C   0)                  1.0857         0.000000   
      8. B(H   7,C   1)                  1.0865         0.000000   
      9. B(H   8,C   4)                  1.0848         0.000000   
     10. B(H   9,C   5)                  1.0861         0.000000   
     11. B(B  10,C   2)                  1.5990         0.000000   
     12. B(H  11,B  10)                  1.3759         0.000000   
     13. B(C  12,B  10)                  1.6159         0.000000   
     14. B(C  13,C  12)                  1.3792         0.000000   
     15. B(C  14,C  13)                  1.4177         0.000000   
     16. B(H  15,C  13)                  1.0838         0.000000   
     17. B(C  16,C  14)                  1.3696         0.000000   
     18. B(H  17,C  14)                  1.0829         0.000000   
     19. B(H  18,C  16)                  1.0815         0.000000   
     20. B(H  19,B  10)                  1.1991         0.000000   
     21. B(B  20,H  11)                  1.2641         0.000000   
     22. B(B  20,B  10)                  2.0071         0.000000   
     23. B(O  21,B  20)                  1.3648         0.000000   
     24. B(O  22,B  20)                  1.3713         0.000000   
     25. B(C  23,O  21)                  1.4477         0.000000   
     26. B(C  24,C  23)                  1.5725         0.000000   
     27. B(C  24,O  22)                  1.4472         0.000000   
     28. B(C  25,C  23)                  1.5214         0.000000   
     29. B(H  26,C  25)                  1.0926         0.000000   
     30. B(H  27,C  25)                  1.0946         0.000000   
     31. B(H  28,C  25)                  1.0909         0.000000   
     32. B(C  29,C  23)                  1.5286         0.000000   
     33. B(H  30,C  29)                  1.0922         0.000000   
     34. B(H  31,C  29)                  1.0928         0.000000   
     35. B(H  32,C  29)                  1.0936         0.000000   
     36. B(C  33,C  24)                  1.5214         0.000000   
     37. B(H  34,C  33)                  1.0929         0.000000   
     38. B(H  35,C  33)                  1.0944         0.000000   
     39. B(H  36,C  33)                  1.0910         0.000000   
     40. B(C  37,C  24)                  1.5284         0.000000   
     41. B(H  38,C  37)                  1.0934         0.000000   
     42. B(H  39,C  37)                  1.0925         0.000000   
     43. B(H  40,C  37)                  1.0933         0.000000   
     44. B(N  41,C   3)                  1.4214         0.000000   
     45. B(C  42,N  41)                  1.4469         0.000000   
     46. B(H  43,C  42)                  1.1056         0.000000   
     47. B(H  44,C  42)                  1.0948         0.000000   
     48. B(H  45,C  42)                  1.0926         0.000000   
     49. B(C  46,N  41)                  1.4549         0.000000   
     50. B(H  47,C  46)                  1.0951         0.000000   
     51. B(H  48,C  46)                  1.1048         0.000000   
     52. B(H  49,C  46)                  1.0898         0.000000   
     53. B(S  50,C  16)                  1.7129         0.000000   
     54. B(S  50,C  12)                  1.7403         0.000000   
     55. A(C   5,C   0,H   6)          120.5601         0.000000   
     56. A(C   1,C   0,C   5)          119.3258         0.000000   
     57. A(C   1,C   0,H   6)          120.1057         0.000000   
     58. A(C   0,C   1,C   2)          122.3156         0.000000   
     59. A(C   0,C   1,H   7)          118.6031         0.000000   
     60. A(C   2,C   1,H   7)          119.0592         0.000000   
     61. A(C   3,C   2,B  10)          120.1680         0.000000   
     62. A(C   1,C   2,C   3)          117.6088         0.000000   
     63. A(C   1,C   2,B  10)          122.1710         0.000000   
     64. A(C   2,C   3,C   4)          119.9269         0.000000   
     65. A(C   4,C   3,N  41)          120.9570         0.000000   
     66. A(C   2,C   3,N  41)          119.1117         0.000000   
     67. A(C   3,C   4,H   8)          119.8118         0.000000   
     68. A(C   5,C   4,H   8)          119.2030         0.000000   
     69. A(C   3,C   4,C   5)          120.9837         0.000000   
     70. A(C   0,C   5,H   9)          120.5508         0.000000   
     71. A(C   0,C   5,C   4)          119.8031         0.000000   
     72. A(C   4,C   5,H   9)          119.6428         0.000000   
     73. A(C  12,B  10,H  19)          112.1184         0.000000   
     74. A(C   2,B  10,H  19)          117.6674         0.000000   
     75. A(C  12,B  10,B  20)           73.0792         0.000000   
     76. A(C   2,B  10,H  11)           99.8903         0.000000   
     77. A(C   2,B  10,B  20)          117.2690         0.000000   
     78. A(H  19,B  10,B  20)          111.4080         0.000000   
     79. A(C   2,B  10,C  12)          117.3862         0.000000   
     80. A(H  11,B  10,C  12)          111.5153         0.000000   
     81. A(H  11,B  10,B  20)           38.4811         0.000000   
     82. A(H  11,B  10,H  19)           94.7503         0.000000   
     83. A(B  10,H  11,B  20)           98.8890         0.000000   
     84. A(C  13,C  12,S  50)          109.2445         0.000000   
     85. A(B  10,C  12,S  50)          120.4751         0.000000   
     86. A(B  10,C  12,C  13)          128.5870         0.000000   
     87. A(C  14,C  13,H  15)          124.2165         0.000000   
     88. A(C  12,C  13,H  15)          121.5095         0.000000   
     89. A(C  12,C  13,C  14)          114.2724         0.000000   
     90. A(C  16,C  14,H  17)          123.6148         0.000000   
     91. A(C  13,C  14,C  16)          112.0076         0.000000   
     92. A(C  13,C  14,H  17)          124.3752         0.000000   
     93. A(C  14,C  16,H  18)          127.4538         0.000000   
     94. A(H  18,C  16,S  50)          120.7394         0.000000   
     95. A(C  14,C  16,S  50)          111.8040         0.000000   
     96. A(O  21,B  20,O  22)          114.6155         0.000000   
     97. A(H  11,B  20,O  22)          118.0299         0.000000   
     98. A(B  10,B  20,O  22)          122.1580         0.000000   
     99. A(H  11,B  20,O  21)          115.1967         0.000000   
    100. A(B  10,B  20,O  21)          122.3936         0.000000   
    101. A(B  10,B  20,H  11)           42.6300         0.000000   
    102. A(B  20,O  21,C  23)          105.8130         0.000000   
    103. A(B  20,O  22,C  24)          106.3415         0.000000   
    104. A(C  25,C  23,C  29)          110.1267         0.000000   
    105. A(C  24,C  23,C  29)          113.2586         0.000000   
    106. A(O  21,C  23,C  29)          107.6654         0.000000   
    107. A(C  24,C  23,C  25)          114.6348         0.000000   
    108. A(O  21,C  23,C  25)          108.2104         0.000000   
    109. A(O  21,C  23,C  24)          102.3244         0.000000   
    110. A(O  22,C  24,C  33)          108.5871         0.000000   
    111. A(O  22,C  24,C  23)          102.7028         0.000000   
    112. A(C  33,C  24,C  37)          110.4775         0.000000   
    113. A(C  23,C  24,C  37)          113.3254         0.000000   
    114. A(O  22,C  24,C  37)          106.4238         0.000000   
    115. A(C  23,C  24,C  33)          114.6069         0.000000   
    116. A(H  27,C  25,H  28)          108.7642         0.000000   
    117. A(H  26,C  25,H  28)          108.1605         0.000000   
    118. A(C  23,C  25,H  28)          111.6432         0.000000   
    119. A(H  26,C  25,H  27)          108.1684         0.000000   
    120. A(C  23,C  25,H  27)          110.4012         0.000000   
    121. A(C  23,C  25,H  26)          109.6107         0.000000   
    122. A(H  31,C  29,H  32)          108.6331         0.000000   
    123. A(H  30,C  29,H  32)          108.5619         0.000000   
    124. A(C  23,C  29,H  32)          110.9746         0.000000   
    125. A(H  30,C  29,H  31)          107.9871         0.000000   
    126. A(C  23,C  29,H  31)          111.8394         0.000000   
    127. A(C  23,C  29,H  30)          108.7473         0.000000   
    128. A(H  35,C  33,H  36)          108.8330         0.000000   
    129. A(H  34,C  33,H  36)          108.2412         0.000000   
    130. A(C  24,C  33,H  36)          111.3422         0.000000   
    131. A(H  34,C  33,H  35)          108.1726         0.000000   
    132. A(C  24,C  33,H  35)          110.4726         0.000000   
    133. A(C  24,C  33,H  34)          109.6949         0.000000   
    134. A(H  39,C  37,H  40)          108.0618         0.000000   
    135. A(H  38,C  37,H  40)          108.7316         0.000000   
    136. A(C  24,C  37,H  40)          111.0735         0.000000   
    137. A(H  38,C  37,H  39)          108.5396         0.000000   
    138. A(C  24,C  37,H  39)          108.7182         0.000000   
    139. A(C  24,C  37,H  38)          111.6190         0.000000   
    140. A(C  42,N  41,C  46)          111.4276         0.000000   
    141. A(C   3,N  41,C  46)          114.8928         0.000000   
    142. A(C   3,N  41,C  42)          116.9070         0.000000   
    143. A(H  44,C  42,H  45)          108.2283         0.000000   
    144. A(H  43,C  42,H  45)          108.5136         0.000000   
    145. A(N  41,C  42,H  45)          110.0748         0.000000   
    146. A(H  43,C  42,H  44)          107.2414         0.000000   
    147. A(N  41,C  42,H  44)          108.7615         0.000000   
    148. A(N  41,C  42,H  43)          113.8485         0.000000   
    149. A(H  48,C  46,H  49)          107.9434         0.000000   
    150. A(H  47,C  46,H  49)          108.1420         0.000000   
    151. A(N  41,C  46,H  49)          110.6339         0.000000   
    152. A(H  47,C  46,H  48)          108.3207         0.000000   
    153. A(N  41,C  46,H  48)          111.9551         0.000000   
    154. A(N  41,C  46,H  47)          109.7333         0.000000   
    155. A(C  12,S  50,C  16)           92.6647         0.000000   
    156. D(C   2,C   1,C   0,C   5)     -0.0452         0.000000   
    157. D(C   2,C   1,C   0,H   6)    178.9111         0.000000   
    158. D(H   7,C   1,C   0,C   5)   -178.3175         0.000000   
    159. D(H   7,C   1,C   0,H   6)      0.6388         0.000000   
    160. D(C   3,C   2,C   1,H   7)    179.9245         0.000000   
    161. D(B  10,C   2,C   1,C   0)   -175.7147         0.000000   
    162. D(C   3,C   2,C   1,C   0)      1.6598         0.000000   
    163. D(B  10,C   2,C   1,H   7)      2.5500         0.000000   
    164. D(C   4,C   3,C   2,B  10)    175.4078         0.000000   
    165. D(N  41,C   3,C   2,C   1)    178.7339         0.000000   
    166. D(C   4,C   3,C   2,C   1)     -2.0216         0.000000   
    167. D(N  41,C   3,C   2,B  10)     -3.8367         0.000000   
    168. D(C   5,C   4,C   3,N  41)   -179.9455         0.000000   
    169. D(H   8,C   4,C   3,C   2)   -179.6316         0.000000   
    170. D(C   5,C   4,C   3,C   2)      0.8242         0.000000   
    171. D(H   8,C   4,C   3,N  41)     -0.4013         0.000000   
    172. D(H   9,C   5,C   4,H   8)      0.6245         0.000000   
    173. D(C   0,C   5,C   4,H   8)   -178.7084         0.000000   
    174. D(H   9,C   5,C   0,H   6)      0.4959         0.000000   
    175. D(C   0,C   5,C   4,C   3)      0.8385         0.000000   
    176. D(H   9,C   5,C   0,C   1)    179.4474         0.000000   
    177. D(H   9,C   5,C   4,C   3)   -179.8285         0.000000   
    178. D(C   4,C   5,C   0,H   6)    179.8227         0.000000   
    179. D(C   4,C   5,C   0,C   1)     -1.2258         0.000000   
    180. D(H  19,B  10,C   2,C   3)    -33.8301         0.000000   
    181. D(C  12,B  10,C   2,C   3)    104.7945         0.000000   
    182. D(C  12,B  10,C   2,C   1)    -77.8966         0.000000   
    183. D(H  11,B  10,C   2,C   3)   -134.5686         0.000000   
    184. D(H  11,B  10,C   2,C   1)     42.7402         0.000000   
    185. D(H  19,B  10,C   2,C   1)    143.4787         0.000000   
    186. D(B  20,H  11,B  10,C   2)   -121.8752         0.000000   
    187. D(B  20,H  11,B  10,H  19)    118.9513         0.000000   
    188. D(B  20,H  11,B  10,C  12)      2.9190         0.000000   
    189. D(S  50,C  12,B  10,C   2)   -142.7689         0.000000   
    190. D(C  13,C  12,B  10,B  20)    -91.7153         0.000000   
    191. D(C  13,C  12,B  10,H  19)    161.5353         0.000000   
    192. D(C  13,C  12,B  10,H  11)    -93.6134         0.000000   
    193. D(S  50,C  12,B  10,H  11)    102.8909         0.000000   
    194. D(C  13,C  12,B  10,C   2)     20.7268         0.000000   
    195. D(H  15,C  13,C  12,S  50)    179.5575         0.000000   
    196. D(H  15,C  13,C  12,B  10)     14.5879         0.000000   
    197. D(C  14,C  13,C  12,S  50)     -0.8904         0.000000   
    198. D(C  14,C  13,C  12,B  10)   -165.8600         0.000000   
    199. D(H  17,C  14,C  13,H  15)     -0.3873         0.000000   
    200. D(H  17,C  14,C  13,C  12)   -179.9255         0.000000   
    201. D(C  16,C  14,C  13,C  12)      0.6238         0.000000   
    202. D(C  16,C  14,C  13,H  15)   -179.8380         0.000000   
    203. D(S  50,C  16,C  14,C  13)     -0.0433         0.000000   
    204. D(S  50,C  16,C  14,H  17)   -179.4989         0.000000   
    205. D(H  18,C  16,C  14,H  17)     -0.1035         0.000000   
    206. D(H  18,C  16,C  14,C  13)    179.3522         0.000000   
    207. D(O  22,B  20,H  11,B  10)    108.1784         0.000000   
    208. D(O  21,B  20,B  10,H  19)     23.6680         0.000000   
    209. D(O  21,B  20,B  10,C  12)    -83.9973         0.000000   
    210. D(O  21,B  20,B  10,H  11)     93.1643         0.000000   
    211. D(O  21,B  20,B  10,C   2)    163.4146         0.000000   
    212. D(H  11,B  20,B  10,H  19)    -69.4963         0.000000   
    213. D(O  21,B  20,H  11,B  10)   -111.2897         0.000000   
    214. D(H  11,B  20,B  10,C  12)   -177.1615         0.000000   
    215. D(H  11,B  20,B  10,C   2)     70.2503         0.000000   
    216. D(C  23,O  21,B  20,O  22)    -14.7988         0.000000   
    217. D(C  23,O  21,B  20,H  11)   -156.6886         0.000000   
    218. D(C  23,O  21,B  20,B  10)    154.9513         0.000000   
    219. D(C  24,O  22,B  20,O  21)     -4.4369         0.000000   
    220. D(C  24,O  22,B  20,H  11)    136.3163         0.000000   
    221. D(C  24,O  22,B  20,B  10)   -174.2138         0.000000   
    222. D(C  29,C  23,O  21,B  20)    -93.9740         0.000000   
    223. D(C  25,C  23,O  21,B  20)    147.0174         0.000000   
    224. D(C  24,C  23,O  21,B  20)     25.6154         0.000000   
    225. D(C  33,C  24,C  23,C  29)    -29.8415         0.000000   
    226. D(C  33,C  24,C  23,C  25)     97.6856         0.000000   
    227. D(C  33,C  24,C  23,O  21)   -145.4360         0.000000   
    228. D(O  22,C  24,C  23,C  29)     87.7143         0.000000   
    229. D(O  22,C  24,C  23,C  25)   -144.7585         0.000000   
    230. D(O  22,C  24,C  23,O  21)    -27.8801         0.000000   
    231. D(C  37,C  24,O  22,B  20)    -99.4253         0.000000   
    232. D(C  33,C  24,O  22,B  20)    141.6330         0.000000   
    233. D(C  23,C  24,O  22,B  20)     19.8887         0.000000   
    234. D(H  27,C  25,C  23,C  29)     67.8239         0.000000   
    235. D(H  27,C  25,C  23,C  24)    -61.2802         0.000000   
    236. D(H  27,C  25,C  23,O  21)   -174.7373         0.000000   
    237. D(H  26,C  25,C  23,C  29)    -51.2329         0.000000   
    238. D(H  26,C  25,C  23,C  24)    179.6630         0.000000   
    239. D(H  26,C  25,C  23,O  21)     66.2059         0.000000   
    240. D(H  31,C  29,C  23,C  25)   -179.1042         0.000000   
    241. D(H  31,C  29,C  23,C  24)    -49.2580         0.000000   
    242. D(H  31,C  29,C  23,O  21)     63.1196         0.000000   
    243. D(H  30,C  29,C  23,C  25)     61.7299         0.000000   
    244. D(H  30,C  29,C  23,C  24)   -168.4239         0.000000   
    245. D(H  30,C  29,C  23,O  21)    -56.0463         0.000000   
    246. D(H  35,C  33,C  24,C  37)     68.8929         0.000000   
    247. D(H  35,C  33,C  24,C  23)    -60.5942         0.000000   
    248. D(H  35,C  33,C  24,O  22)   -174.7475         0.000000   
    249. D(H  34,C  33,C  24,C  37)    -50.2658         0.000000   
    250. D(H  34,C  33,C  24,C  23)   -179.7529         0.000000   
    251. D(H  34,C  33,C  24,O  22)     66.0938         0.000000   
    252. D(H  39,C  37,C  24,C  33)     61.3072         0.000000   
    253. D(H  39,C  37,C  24,C  23)   -168.5226         0.000000   
    254. D(H  39,C  37,C  24,O  22)    -56.3899         0.000000   
    255. D(H  38,C  37,C  24,C  33)    -58.3893         0.000000   
    256. D(H  38,C  37,C  24,C  23)     71.7809         0.000000   
    257. D(H  38,C  37,C  24,O  22)   -176.0864         0.000000   
    258. D(C  46,N  41,C   3,C   4)    107.6869         0.000000   
    259. D(C  46,N  41,C   3,C   2)    -73.0766         0.000000   
    260. D(C  42,N  41,C   3,C   4)    -25.7159         0.000000   
    261. D(C  42,N  41,C   3,C   2)    153.5206         0.000000   
    262. D(H  45,C  42,N  41,C   3)    -46.3325         0.000000   
    263. D(H  44,C  42,N  41,C  46)     60.3227         0.000000   
    264. D(H  44,C  42,N  41,C   3)   -164.7480         0.000000   
    265. D(H  43,C  42,N  41,C  46)    -59.1766         0.000000   
    266. D(H  43,C  42,N  41,C   3)     75.7527         0.000000   
    267. D(H  49,C  46,N  41,C   3)     41.9936         0.000000   
    268. D(H  48,C  46,N  41,C  42)     57.4409         0.000000   
    269. D(H  48,C  46,N  41,C   3)    -78.4525         0.000000   
    270. D(H  47,C  46,N  41,C  42)    -62.8679         0.000000   
    271. D(H  47,C  46,N  41,C   3)    161.2387         0.000000   
    272. D(C  12,S  50,C  16,H  18)   -179.8352         0.000000   
    273. D(C  12,S  50,C  16,C  14)     -0.3936         0.000000   
    274. D(C  16,S  50,C  12,C  13)      0.7247         0.000000   
    275. D(C  16,S  50,C  12,B  10)    167.1211         0.000000   
    -----------------------------------------------------------------

Number of atoms                         .... 51
Number of degrees of freedom            .... 275


         *************************************************************
         *                GEOMETRY OPTIMIZATION CYCLE   1            *
         *************************************************************
---------------------------------
CARTESIAN COORDINATES (ANGSTROEM)
---------------------------------
  C     -2.056478   -2.081670    0.887745
  C     -0.715417   -1.709099    0.934651
  C     -0.284165   -0.421332    0.595017
  C     -1.269420    0.524243    0.228420
  C     -2.615110    0.144820    0.174022
  C     -3.007069   -1.150970    0.492634
  H     -2.349159   -3.095760    1.142025
  H      0.021924   -2.454716    1.218853
  H     -3.368782    0.870221   -0.113266
  H     -4.057303   -1.422678    0.440337
  B      1.264499   -0.025461    0.553238
  H      1.776714   -1.140408   -0.069332
  C      1.998461    0.254564    1.965324
  C      1.621544   -0.155756    3.226950
  C      2.294771    0.510506    4.281869
  H      0.876722   -0.929622    3.371969
  C      3.181175    1.444858    3.815836
  H      2.126599    0.315920    5.333816
  H      3.814946    2.098679    4.399298
  H      1.621311    0.737527   -0.300163
  B      2.598436   -1.501112    0.821017
  O      3.914588   -1.366729    0.485733
  O      2.306589   -2.625459    1.549843
  C      4.633138   -2.301589    1.325789
  C      3.535971   -3.383852    1.638305
  C      5.830747   -2.820080    0.543781
  H      6.535107   -2.003567    0.367664
  H      6.347852   -3.600565    1.110853
  H      5.533796   -3.227544   -0.423572
  C      5.103620   -1.543186    2.566759
  H      5.698628   -0.684253    2.248648
  H      4.263676   -1.171244    3.158626
  H      5.724359   -2.180253    3.202920
  C      3.628596   -3.997032    3.027582
  H      2.835373   -4.737627    3.156940
  H      4.591015   -4.500975    3.160186
  H      3.518015   -3.238958    3.804361
  C      3.445801   -4.478594    0.575597
  H      4.308310   -5.149560    0.614216
  H      2.541189   -5.065163    0.752359
  H      3.380265   -4.048424   -0.427326
  N     -0.869591    1.849047   -0.096222
  C     -1.728904    2.591137   -0.993173
  H     -2.654144    2.965782   -0.517900
  H     -1.180245    3.461961   -1.366381
  H     -2.005239    1.969249   -1.847925
  C     -0.459235    2.660577    1.039505
  H      0.132459    3.513279    0.690105
  H     -1.325686    3.047602    1.605159
  H      0.156353    2.078495    1.724986
  S      3.195248    1.510436    2.104254

----------------------------
CARTESIAN COORDINATES (A.U.)
----------------------------
  NO LB      ZA    FRAG     MASS         X           Y           Z
   0 C     6.0000    0    12.011   -3.886180   -3.933786    1.677595
   1 C     6.0000    0    12.011   -1.351942   -3.229729    1.766234
   2 C     6.0000    0    12.011   -0.536994   -0.796202    1.124419
   3 C     6.0000    0    12.011   -2.398856    0.990676    0.431651
   4 C     6.0000    0    12.011   -4.941842    0.273670    0.328854
   5 C     6.0000    0    12.011   -5.682537   -2.175018    0.930943
   6 H     1.0000    0     1.008   -4.439267   -5.850139    2.158114
   7 H     1.0000    0     1.008    0.041430   -4.638741    2.303298
   8 H     1.0000    0     1.008   -6.366075    1.644479   -0.214042
   9 H     1.0000    0     1.008   -7.667192   -2.688472    0.832116
  10 B     5.0000    0    10.810    2.389557   -0.048114    1.045468
  11 H     1.0000    0     1.008    3.357503   -2.155059   -0.131018
  12 C     6.0000    0    12.011    3.776544    0.481056    3.713924
  13 C     6.0000    0    12.011    3.064274   -0.294336    6.098052
  14 C     6.0000    0    12.011    4.336489    0.964717    8.091560
  15 H     1.0000    0     1.008    1.656764   -1.756731    6.372098
  16 C     6.0000    0    12.011    6.011550    2.730386    7.210885
  17 H     1.0000    0     1.008    4.018690    0.597002   10.079451
  18 H     1.0000    0     1.008    7.209203    3.965929    8.313468
  19 H     1.0000    0     1.008    3.063834    1.393724   -0.567226
  20 B     5.0000    0    10.810    4.910332   -2.836691    1.551497
  21 O     8.0000    0    15.999    7.397499   -2.582744    0.917902
  22 O     8.0000    0    15.999    4.358822   -4.961398    2.928779
  23 C     6.0000    0    12.011    8.755362   -4.349373    2.505378
  24 C     6.0000    0    12.011    6.682017   -6.394554    3.095948
  25 C     6.0000    0    12.011   11.018515   -5.329179    1.027597
  26 H     1.0000    0     1.008   12.349562   -3.786193    0.694784
  27 H     1.0000    0     1.008   11.995702   -6.804082    2.099208
  28 H     1.0000    0     1.008   10.457359   -6.099174   -0.800435
  29 C     6.0000    0    12.011    9.644444   -2.916199    4.850472
  30 H     1.0000    0     1.008   10.768846   -1.293051    4.249329
  31 H     1.0000    0     1.008    8.057180   -2.213330    5.968938
  32 H     1.0000    0     1.008   10.817471   -4.120081    6.052642
  33 C     6.0000    0    12.011    6.857053   -7.553296    5.721301
  34 H     1.0000    0     1.008    5.358078   -8.952818    5.965752
  35 H     1.0000    0     1.008    8.675761   -8.505610    5.971886
  36 H     1.0000    0     1.008    6.648085   -6.120744    7.189200
  37 C     6.0000    0    12.011    6.511620   -8.463316    1.087721
  38 H     1.0000    0     1.008    8.141526   -9.731258    1.160700
  39 H     1.0000    0     1.008    4.802151   -9.571771    1.421752
  40 H     1.0000    0     1.008    6.387775   -7.650413   -0.807529
  41 N     7.0000    0    14.007   -1.643289    3.494192   -0.181833
  42 C     6.0000    0    12.011   -3.267155    4.896539   -1.876825
  43 H     1.0000    0     1.008   -5.015605    5.604516   -0.978689
  44 H     1.0000    0     1.008   -2.230340    6.542158   -2.582086
  45 H     1.0000    0     1.008   -3.789353    3.721341   -3.492072
  46 C     6.0000    0    12.011   -0.867828    5.027762    1.964380
  47 H     1.0000    0     1.008    0.250311    6.639135    1.304109
  48 H     1.0000    0     1.008   -2.505183    5.759133    3.033311
  49 H     1.0000    0     1.008    0.295464    3.927786    3.259751
  50 S    16.0000    0    32.060    6.038144    2.854310    3.976464

--------------------------------
INTERNAL COORDINATES (ANGSTROEM)
--------------------------------
 C      0   0   0     0.000000000000     0.00000000     0.00000000
 C      1   0   0     1.392642785713     0.00000000     0.00000000
 C      2   1   0     1.399883347908   122.31561606     0.00000000
 C      3   2   1     1.413942310018   117.60878364     1.65977092
 C      4   3   2     1.399214969700   119.92687257   357.97841464
 C      1   2   3     1.387781842222   119.32583745   359.95475167
 H      1   2   3     1.085679056748   120.10572110   178.91110503
 H      2   1   3     1.086456275132   118.60311442   181.72771193
 H      5   4   3     1.084786840503   119.81179025   180.36839564
 H      6   1   2     1.086071668091   120.55075643   179.44742242
 B      3   2   1     1.599005790602   122.17102215   184.28532644
 H     11   3   2     1.375886777295    99.89025358    42.74023342
 C     11   3   2     1.615890184841   117.38617328   282.10340051
 C     13  11   3     1.379176961512   128.58699571    20.72678895
 C     14  13  11     1.417742481106   114.27237167   194.14002748
 H     14  13  11     1.083816824007   121.50946889    14.58790767
 C     15  14  13     1.369639539517   112.00756243     0.62376058
 H     15  14  13     1.082930294982   124.37524785   180.07451214
 H     17  15  14     1.081469133136   127.45380264   179.35216074
 H     11   3   2     1.199065785639   117.66737400   143.47873283
 B     12  11   3     1.264142303185    98.88897179   238.12483783
 O     21  12  11     1.364818756630   115.19673667   248.71025111
 O     21  12  11     1.371319870086   118.02993185   108.17842265
 C     22  21  12     1.447747010094   105.81303442   203.31140736
 C     23  21  12     1.447192305748   106.34145211   136.31632809
 C     24  22  21     1.521393028125   108.21044611   147.01740672
 H     26  24  22     1.092626965830   109.61068183    66.20588613
 H     26  24  22     1.094588995666   110.40118038   185.26270293
 H     26  24  22     1.090861418470   111.64318366   306.38132161
 C     24  22  21     1.528572851922   107.66541659   266.02603375
 H     30  24  22     1.092243117110   108.74728199   303.95370784
 H     30  24  22     1.092773224502   111.83938241    63.11961576
 H     30  24  22     1.093559365801   110.97456508   184.60453604
 C     25  23  21     1.521400567160   108.58708362   141.63299000
 H     34  25  23     1.092893944497   109.69493582    66.09381769
 H     34  25  23     1.094437161113   110.47256558   185.25248853
 H     34  25  23     1.091004107177   111.34219466   306.30470750
 C     25  23  21     1.528377888066   106.42384933   260.57466556
 H     38  25  23     1.093438875931   111.61903712   183.91361692
 H     38  25  23     1.092534149100   108.71822248   303.61010082
 H     38  25  23     1.093250081237   111.07354318    62.38604452
 N      4   3   2     1.421394138099   119.11170993   178.73392043
 C     42   4   3     1.446940737028   116.90697334   153.52057663
 H     43  42   4     1.105582361543   113.84847707    75.75270733
 H     43  42   4     1.094826629435   108.76150370   195.25201398
 H     43  42   4     1.092568852875   110.07478107   313.66749757
 C     42   4   3     1.454939451031   114.89284719   286.92335641
 H     47  42   4     1.095117733598   109.73328829   161.23869652
 H     47  42   4     1.104757952559   111.95508067   281.54748206
 H     47  42   4     1.089794586988   110.63388300    41.99361735
 S     17  15  14     1.712895637842   111.80404113   359.95673913

---------------------------
INTERNAL COORDINATES (A.U.)
---------------------------
 C      0   0   0     0.000000000000     0.00000000     0.00000000
 C      1   0   0     2.631713467378     0.00000000     0.00000000
 C      2   1   0     2.645396146982   122.31561606     0.00000000
 C      3   2   1     2.671963735098   117.60878364     1.65977092
 C      4   3   2     2.644133095216   119.92687257   357.97841464
 C      1   2   3     2.622527615429   119.32583745   359.95475167
 H      1   2   3     2.051636086587   120.10572110   178.91110503
 H      2   1   3     2.053104816480   118.60311442   181.72771193
 H      5   4   3     2.049950042233   119.81179025   180.36839564
 H      6   1   2     2.052378014502   120.55075643   179.44742242
 B      3   2   1     3.021683030792   122.17102215   184.28532644
 H     11   3   2     2.600049200370    99.89025358    42.74023342
 C     11   3   2     3.053589911841   117.38617328   282.10340051
 C     13  11   3     2.606266747471   128.58699571    20.72678895
 C     14  13  11     2.679145017717   114.27237167   194.14002748
 H     14  13  11     2.048116976710   121.50946889    14.58790767
 C     15  14  13     2.588243631878   112.00756243     0.62376058
 H     15  14  13     2.046441679642   124.37524785   180.07451214
 H     17  15  14     2.043680483916   127.45380264   179.35216074
 H     11   3   2     2.265905951412   117.66737400   143.47873283
 B     12  11   3     2.388882747323    98.88897179   238.12483783
 O     21  12  11     2.579133672470   115.19673667   248.71025111
 O     21  12  11     2.591418996468   118.02993185   108.17842265
 C     22  21  12     2.735845360281   105.81303442   203.31140736
 C     23  21  12     2.734797120982   106.34145211   136.31632809
 C     24  22  21     2.875016165213   108.21044611   147.01740672
 H     26  24  22     2.064765731955   109.61068183    66.20588613
 H     26  24  22     2.068473431013   110.40118038   185.26270293
 H     26  24  22     2.061429330969   111.64318366   306.38132161
 C     24  22  21     2.888584065880   107.66541659   266.02603375
 H     30  24  22     2.064040362998   108.74728199   303.95370784
 H     30  24  22     2.065042120791   111.83938241    63.11961576
 H     30  24  22     2.066527712548   110.97456508   184.60453604
 C     25  23  21     2.875030411924   108.58708362   141.63299000
 H     34  25  23     2.065270248520   109.69493582    66.09381769
 H     34  25  23     2.068186505291   110.47256558   185.25248853
 H     34  25  23     2.061698973549   111.34219466   306.30470750
 C     25  23  21     2.888215637585   106.42384933   260.57466556
 H     38  25  23     2.066300019693   111.61903712   183.91361692
 H     38  25  23     2.064590333755   108.71822248   303.61010082
 H     38  25  23     2.065943249425   111.07354318    62.38604452
 N      4   3   2     2.686045649367   119.11170993   178.73392043
 C     42   4   3     2.734321724996   116.90697334   153.52057663
 H     43  42   4     2.089247881809   113.84847707    75.75270733
 H     43  42   4     2.068922493757   108.76150370   195.25201398
 H     43  42   4     2.064655914387   110.07478107   313.66749757
 C     42   4   3     2.749437103885   114.89284719   286.92335641
 H     47  42   4     2.069472600900   109.73328829   161.23869652
 H     47  42   4     2.087689974608   111.95508067   281.54748206
 H     47  42   4     2.059413311638   110.63388300    41.99361735
 S     17  15  14     3.236903651509   111.80404113   359.95673913

---------------------
BASIS SET INFORMATION
---------------------
There are 6 groups of distinct atoms

 Group   1 Type C   : 11s5p1d contracted to 4s3p1d pattern {6311/311/1}
 Group   2 Type H   : 4s1p contracted to 2s1p pattern {31/1}
 Group   3 Type B   : 11s5p1d contracted to 4s3p1d pattern {6311/311/1}
 Group   4 Type O   : 11s5p1d contracted to 4s3p1d pattern {6311/311/1}
 Group   5 Type N   : 11s5p1d contracted to 4s3p1d pattern {6311/311/1}
 Group   6 Type S   : 17s11p1d contracted to 5s4p1d pattern {66311/6311/1}

Atom   0C    basis set group =>   1
Atom   1C    basis set group =>   1
Atom   2C    basis set group =>   1
Atom   3C    basis set group =>   1
Atom   4C    basis set group =>   1
Atom   5C    basis set group =>   1
Atom   6H    basis set group =>   2
Atom   7H    basis set group =>   2
Atom   8H    basis set group =>   2
Atom   9H    basis set group =>   2
Atom  10B    basis set group =>   3
Atom  11H    basis set group =>   2
Atom  12C    basis set group =>   1
Atom  13C    basis set group =>   1
Atom  14C    basis set group =>   1
Atom  15H    basis set group =>   2
Atom  16C    basis set group =>   1
Atom  17H    basis set group =>   2
Atom  18H    basis set group =>   2
Atom  19H    basis set group =>   2
Atom  20B    basis set group =>   3
Atom  21O    basis set group =>   4
Atom  22O    basis set group =>   4
Atom  23C    basis set group =>   1
Atom  24C    basis set group =>   1
Atom  25C    basis set group =>   1
Atom  26H    basis set group =>   2
Atom  27H    basis set group =>   2
Atom  28H    basis set group =>   2
Atom  29C    basis set group =>   1
Atom  30H    basis set group =>   2
Atom  31H    basis set group =>   2
Atom  32H    basis set group =>   2
Atom  33C    basis set group =>   1
Atom  34H    basis set group =>   2
Atom  35H    basis set group =>   2
Atom  36H    basis set group =>   2
Atom  37C    basis set group =>   1
Atom  38H    basis set group =>   2
Atom  39H    basis set group =>   2
Atom  40H    basis set group =>   2
Atom  41N    basis set group =>   5
Atom  42C    basis set group =>   1
Atom  43H    basis set group =>   2
Atom  44H    basis set group =>   2
Atom  45H    basis set group =>   2
Atom  46C    basis set group =>   1
Atom  47H    basis set group =>   2
Atom  48H    basis set group =>   2
Atom  49H    basis set group =>   2
Atom  50S    basis set group =>   6
---------------------------------
AUXILIARY/J BASIS SET INFORMATION
---------------------------------
There are 6 groups of distinct atoms

 Group   1 Type C   : 12s5p4d2f1g contracted to 6s4p3d1f1g pattern {711111/2111/211/2/1}
 Group   2 Type H   : 5s2p1d contracted to 3s1p1d pattern {311/2/1}
 Group   3 Type B   : 12s5p4d2f1g contracted to 6s4p3d1f1g pattern {711111/2111/211/2/1}
 Group   4 Type O   : 12s5p4d2f1g contracted to 6s4p3d1f1g pattern {711111/2111/211/2/1}
 Group   5 Type N   : 12s5p4d2f1g contracted to 6s4p3d1f1g pattern {711111/2111/211/2/1}
 Group   6 Type S   : 14s5p5d2f1g contracted to 8s4p3d1f1g pattern {71111111/2111/311/2/1}

Atom   0C    basis set group =>   1
Atom   1C    basis set group =>   1
Atom   2C    basis set group =>   1
Atom   3C    basis set group =>   1
Atom   4C    basis set group =>   1
Atom   5C    basis set group =>   1
Atom   6H    basis set group =>   2
Atom   7H    basis set group =>   2
Atom   8H    basis set group =>   2
Atom   9H    basis set group =>   2
Atom  10B    basis set group =>   3
Atom  11H    basis set group =>   2
Atom  12C    basis set group =>   1
Atom  13C    basis set group =>   1
Atom  14C    basis set group =>   1
Atom  15H    basis set group =>   2
Atom  16C    basis set group =>   1
Atom  17H    basis set group =>   2
Atom  18H    basis set group =>   2
Atom  19H    basis set group =>   2
Atom  20B    basis set group =>   3
Atom  21O    basis set group =>   4
Atom  22O    basis set group =>   4
Atom  23C    basis set group =>   1
Atom  24C    basis set group =>   1
Atom  25C    basis set group =>   1
Atom  26H    basis set group =>   2
Atom  27H    basis set group =>   2
Atom  28H    basis set group =>   2
Atom  29C    basis set group =>   1
Atom  30H    basis set group =>   2
Atom  31H    basis set group =>   2
Atom  32H    basis set group =>   2
Atom  33C    basis set group =>   1
Atom  34H    basis set group =>   2
Atom  35H    basis set group =>   2
Atom  36H    basis set group =>   2
Atom  37C    basis set group =>   1
Atom  38H    basis set group =>   2
Atom  39H    basis set group =>   2
Atom  40H    basis set group =>   2
Atom  41N    basis set group =>   5
Atom  42C    basis set group =>   1
Atom  43H    basis set group =>   2
Atom  44H    basis set group =>   2
Atom  45H    basis set group =>   2
Atom  46C    basis set group =>   1
Atom  47H    basis set group =>   2
Atom  48H    basis set group =>   2
Atom  49H    basis set group =>   2
Atom  50S    basis set group =>   6


           ************************************************************
           *        Program running with 8 parallel MPI-processes     *
           *              working on a common directory               *
           ************************************************************
------------------------------------------------------------------------------
                             ORCA STARTUP CALCULATIONS
                           -- RI-GTO INTEGRALS CHOSEN --
------------------------------------------------------------------------------
------------------------------------------------------------------------------
                   ___                                                        
                  /   \      - P O W E R E D   B Y -                         
                 /     \                                                     
                 |  |  |   _    _      __       _____    __    __             
                 |  |  |  | |  | |    /  \     |  _  \  |  |  /  |          
                  \  \/   | |  | |   /    \    | | | |  |  | /  /          
                 / \  \   | |__| |  /  /\  \   | |_| |  |  |/  /          
                |  |  |   |  __  | /  /__\  \  |    /   |      \           
                |  |  |   | |  | | |   __   |  |    \   |  |\   \          
                \     /   | |  | | |  |  |  |  | |\  \  |  | \   \       
                 \___/    |_|  |_| |__|  |__|  |_| \__\ |__|  \__/        
                                                                              
                      - O R C A' S   B I G   F R I E N D -                    
                                      &                                       
                       - I N T E G R A L  F E E D E R -                       
                                                                              
 v1 FN, 2020, v2 2021, v3 2022-2024                                           
------------------------------------------------------------------------------


----------------------
SHARK INTEGRAL PACKAGE
----------------------

Number of atoms                             ...     51
Number of basis functions                   ...    571
Number of shells                            ...    275
Maximum angular momentum                    ...      2
Integral batch strategy                     ... SHARK/LIBINT Hybrid
RI-J (if used) integral strategy            ... SPLIT-RIJ (Revised 2003 algorithm where possible)
Printlevel                                  ...      1
Contraction scheme used                     ... SEGMENTED contraction
Prescreening option                         ... SCHWARTZ
   Thresh                                   ... 2.500e-11
   Tcut                                     ... 2.500e-12
   Tpresel                                  ... 2.500e-12 
Coulomb Range Separation                    ... NOT USED
Exchange Range Separation                   ... Long Range
   Mu parameter                             ... 2.500e-01
   Scaling (regular/separated)              ... 1.957e-01 8.043e-01
Robust (split-)RI terms used:
  metric    (central integrals)             ... YES
  density   (r.h.s.  integrals)             ... YES
  potential (l.h.s.  integrals)             ... YES
Multipole approximations                    ... NOT USED
Finite Nucleus Model                        ... NOT USED
CABS basis                                  ... NOT available
Auxiliary Coulomb fitting basis             ... AVAILABLE
   # of basis functions in Aux-J            ...   1475
   # of shells in Aux-J                     ...    497
   Maximum angular momentum in Aux-J        ...      4
Auxiliary J/K fitting basis                 ... NOT available
Auxiliary Correlation fitting basis         ... NOT available
Auxiliary 'external' fitting basis          ... NOT available

Checking pre-screening integrals            ... done (  0.0 sec) Dimension = 275
   => SHARK Basis and OBASIS are compatible. Storing Pre-screening
Shell pair information
Shell pair cut-off parameter TPreSel        ...   2.5e-12
Total number of shell pairs                 ...     37950
Shell pairs after pre-screening             ...     29594
Total number of primitive shell pairs       ...    154905
Primitive shell pairs kept                  ...     75296
          la=0 lb=0:   8877 shell pairs
          la=1 lb=0:  12065 shell pairs
          la=1 lb=1:   4155 shell pairs
          la=2 lb=0:   2546 shell pairs
          la=2 lb=1:   1766 shell pairs
          la=2 lb=2:    185 shell pairs

Checking whether 4 symmetric matrices of dimension 571 fit in memory
:Max Core in MB      =   3840.00
 MB in use           =     40.29
 MB left             =   3799.71
 MB needed           =      4.98
 Data fit in memory  = YES
Calculating RI/J V-Matrix + Cholesky decomp.... done (  0.1 sec)
Calculating Nuclear repulsion               ... done (  0.0 sec) ENN=   2312.645022428391 Eh

Diagonalization of the overlap matrix:
Smallest eigenvalue                        ... 8.807e-07
Time for diagonalization                   ...    0.086 sec
Threshold for overlap eigenvalues          ... 1.000e-07
Number of eigenvalues below threshold      ... 0

IMPORTANT:
Smallest eigenvalue of S below the DiffSThresh (1.000e-06) while
Thresh>1e-12 and/or TCut>1e-13! In order to avoid SCF convergence issues,
Thresh will be set to at least 1e-12 and TCut to at least 1e-13.
This can be turned off by adding %SCF DiffSThresh -1 END to the input.

Time for construction of square roots      ...    0.042 sec
Total time needed                          ...    0.132 sec

-------------------
DFT GRID GENERATION
-------------------

General Integration Accuracy     IntAcc      ... 4.388
Radial Grid Type                 RadialGrid  ... OptM3 with GC (2021)
Angular Grid (max. ang.)         AngularGrid ... 4 (Lebedev-302)
Angular grid pruning method      GridPruning ... 4 (adaptive)
Weight generation scheme         WeightScheme... mBecke (2022)
Basis function cutoff            BFCut       ... 1.0000e-11
Integration weight cutoff        WCut        ... 1.0000e-14
Partially contracted basis set               ... off
Rotationally invariant grid construction     ... off
Angular grids for H and He will be reduced by one unit
Diffuse basis detected: some atoms will have their outermost
                        angular grid increased by 1.

Total number of grid points                  ...   233636
Total number of batches                      ...     3677
Average number of points per batch           ...       63
Average number of grid points per atom       ...     4581

--------------------
COSX GRID GENERATION
--------------------

GRIDX 1
-------
General Integration Accuracy     IntAcc      ... 3.816
Radial Grid Type                 RadialGrid  ... OptM3 with GC (2021)
Angular Grid (max. ang.)         AngularGrid ... 1 (Lebedev-50)
Angular grid pruning method      GridPruning ... 4 (adaptive)
Weight generation scheme         WeightScheme... mBecke (2022)
Basis function cutoff            BFCut       ... 1.0000e-11
Integration weight cutoff        WCut        ... 1.0000e-14
Partially contracted basis set               ... on
Rotationally invariant grid construction     ... off
Angular grids for H and He will be reduced by one unit
Diffuse basis detected: some atoms will have their outermost
                        angular grid increased by 1.

Total number of grid points                  ...    30798
Total number of batches                      ...      265
Average number of points per batch           ...      116
Average number of grid points per atom       ...      604
UseSFitting                                  ... on

GRIDX 2
-------
General Integration Accuracy     IntAcc      ... 4.020
Radial Grid Type                 RadialGrid  ... OptM3 with GC (2021)
Angular Grid (max. ang.)         AngularGrid ... 2 (Lebedev-110)
Angular grid pruning method      GridPruning ... 4 (adaptive)
Weight generation scheme         WeightScheme... mBecke (2022)
Basis function cutoff            BFCut       ... 1.0000e-11
Integration weight cutoff        WCut        ... 1.0000e-14
Partially contracted basis set               ... on
Rotationally invariant grid construction     ... off
Angular grids for H and He will be reduced by one unit
Diffuse basis detected: some atoms will have their outermost
                        angular grid increased by 1.

Total number of grid points                  ...    66034
Total number of batches                      ...      539
Average number of points per batch           ...      122
Average number of grid points per atom       ...     1295
UseSFitting                                  ... on

GRIDX 3
-------
General Integration Accuracy     IntAcc      ... 4.338
Radial Grid Type                 RadialGrid  ... OptM3 with GC (2021)
Angular Grid (max. ang.)         AngularGrid ... 3 (Lebedev-194)
Angular grid pruning method      GridPruning ... 4 (adaptive)
Weight generation scheme         WeightScheme... mBecke (2022)
Basis function cutoff            BFCut       ... 1.0000e-11
Integration weight cutoff        WCut        ... 1.0000e-14
Partially contracted basis set               ... on
Rotationally invariant grid construction     ... off
Angular grids for H and He will be reduced by one unit
Diffuse basis detected: some atoms will have their outermost
                        angular grid increased by 1.

Total number of grid points                  ...   142819
Total number of batches                      ...     1142
Average number of points per batch           ...      125
Average number of grid points per atom       ...     2800
UseSFitting                                  ... on
Grids setup in   6.0 sec
Initializing property integral containers    ... done (  0.0 sec)

SHARK setup successfully completed in   6.9 seconds

Maximum memory used throughout the entire STARTUP-calculation: 84.8 MB


           ************************************************************
           *        Program running with 8 parallel MPI-processes     *
           *              working on a common directory               *
           ************************************************************
-------------------------------------------------------------------------------
                                 ORCA GUESS
                   Start orbitals & Density for SCF / CASSCF
-------------------------------------------------------------------------------

------------
SCF SETTINGS
------------
Hamiltonian:
 Density Functional     Method          .... DFT(GTOs)
 Exchange Functional    Exchange        .... WB97X-D3
 Correlation Functional Correlation     .... WB97X-D3
 Gradients option       PostSCFGGA      .... off
 Hybrid DFT is turned on
   Fraction HF Exchange ScalHFX         ....  0.195728
   Scaling of DF-GGA-X  ScalDFX         ....  0.000000
   Scaling of DF-GGA-C  ScalDFC         ....  1.000000
   Scaling of DF-LDA-C  ScalLDAC        ....  1.000000
   Perturbative correction              ....  0.000000
 Long-range corrected/Screened/Range-Separated Hybrid DFT is turned on
   Amount of maximum screened exact exchange              ....  0.804272
   Range separation parameter mu (erf(mu*r12)/r12)        ....  0.250000
 RI-approximation to the Coulomb term is turned on
   Number of AuxJ basis functions       .... 1475
   RIJ-COSX (HFX calculated with COS-X)).... on


General Settings:
 Integral files         IntName         .... input
 Hartree-Fock type      HFTyp           .... RHF
 Total Charge           Charge          ....    0
 Multiplicity           Mult            ....    1
 Number of Electrons    NEL             ....  184
 Basis Dimension        Dim             ....  571
 Nuclear Repulsion      ENuc            ....   2312.6450224284 Eh

Convergence Acceleration:
 AO-DIIS                CNVDIIS         .... on
   Start iteration      DIISMaxIt       ....    12
   Startup error        DIISStart       ....  0.200000
   # of expansion vecs  DIISMaxEq       ....     5
   Bias factor          DIISBfac        ....   1.050
   Max. coefficient     DIISMaxC        ....  10.000
 MO-DIIS                CNVKDIIS        .... off
 Trust-Rad. Augm. Hess. CNVTRAH         .... auto
   Auto Start mean grad. ratio tolernc. ....  1.125000
   Auto Start start iteration           ....    50
   Auto Start num. interpolation iter.  ....    10
   Max. Number of Micro iterations      ....    24
   Max. Number of Macro iterations      .... Maxiter - #DIIS iter
   Number of Davidson start vectors     ....     2
   Converg. threshold    (grad. norm)   ....   1.000e-05
   Grad. Scal. Fac. for Micro threshold ....   0.100
   Minimum threshold for Micro iter.    ....   1.000e-02
   NR start threshold (gradient norm)   ....   1.000e-04
   Initial trust radius                 ....   0.400
   Minimum AH scaling param. (alpha)    ....   1.000
   Maximum AH scaling param. (alpha)    .... 1000.000
   Quad. conv. algorithm                .... NR
   White noise on init. David. guess    .... on
   Maximum white noise                  ....   0.010
   Pseudo random numbers                .... off
   Inactive MOs                         .... canonical
   Orbital update algorithm             .... Taylor
   Preconditioner                       .... Diag
   Full preconditioner red. dimension   ....   250
 SOSCF                 CNVSOSCF           .... on
   Start iteration     SOSCFMaxIt         ....   150
   Startup grad/error  SOSCFStart         ....  0.003300
   Hessian update      SOSCFHessUp        .... L-BFGS
   Autom. constraints  SOSCFAutoConstrain .... off
 Level Shifting         CNVShift        .... on
   Level shift para.    LevelShift      ....    0.2500
   Turn off err/grad.   ShiftErr        ....    0.0010
 Zerner damping         CNVZerner       .... off
 Static damping         CNVDamp         .... on
   Fraction old density DampFac         ....    0.7000
   Max. Damping (<1)    DampMax         ....    0.9800
   Min. Damping (>=0)   DampMin         ....    0.0000
   Turn off err/grad.   DampErr         ....    0.1000

SCF Procedure:
 Maximum # iterations   MaxIter         ....   125
 SCF integral mode      SCFMode         .... Direct
   Integral package                     .... SHARK and LIBINT hybrid scheme
 Reset frequency        DirectResetFreq ....    20
 Integral Threshold     Thresh          ....  1.000e-12 Eh
 Primitive CutOff       TCut            ....  1.000e-13 Eh

Convergence Tolerance:
 Convergence Check Mode ConvCheckMode   .... Total+1el-Energy
 Convergence forced     ConvForced      .... 0
 Energy Change          TolE            ....  1.000e-08 Eh
 1-El. energy change                    ....  1.000e-05 Eh
 Orbital Gradient       TolG            ....  1.000e-05
 Orbital Rotation angle TolX            ....  1.000e-05
 DIIS Error             TolErr          ....  5.000e-07

------------------------------
INITIAL GUESS: MODEL POTENTIAL
------------------------------
Loading Hartree-Fock densities                     ... done
Calculating cut-offs                               ... done
Initializing the effective Hamiltonian             ... done
Setting up the integral package (SHARK)            ... done
Starting the Coulomb interaction                   ... done (   0.9 sec)
Making the grid                                    ... done (   0.7 sec)
Mapping shells                                     ... done
Starting the XC term evaluation                    ... done (   0.5 sec)
  promolecular density results
     # of electrons  =    183.990466961
     EX              =   -155.508983454
     EC              =     -6.232892110
     EX+EC           =   -161.741875565
Transforming the Hamiltonian                       ... done (   0.0 sec)
Diagonalizing the Hamiltonian                      ... done (   0.1 sec)
Back transforming the eigenvectors                 ... done (   0.0 sec)
Now organizing SCF variables                       ... done
                      ------------------
                      INITIAL GUESS DONE (   2.5 sec)
                      ------------------
             **** ENERGY FILE WAS UPDATED (input.en.tmp) ****
Finished Guess after   3.1 sec
Maximum memory used throughout the entire GUESS-calculation: 50.6 MB


           ************************************************************
           *        Program running with 8 parallel MPI-processes     *
           *              working on a common directory               *
           ************************************************************

-------------------------------------------------------------------------------------------
                                      ORCA LEAN-SCF
                              memory conserving SCF solver
-------------------------------------------------------------------------------------------

----------------------------------------D-I-I-S--------------------------------------------
Iteration    Energy (Eh)           Delta-E    RMSDP     MaxDP     DIISErr   Damp  Time(sec)
-------------------------------------------------------------------------------------------
               ***  Starting incremental Fock matrix formation  ***
    1    -1354.4752969077389935     0.00e+00  3.99e-02  1.76e+00  1.81e-01  0.700  41.3
    2    -1354.7262654157020734    -2.51e-01  3.35e-02  1.51e+00  9.61e-02  0.700  19.7
                               ***Turning on AO-DIIS***
    3    -1354.8548996226668351    -1.29e-01  2.74e-02  1.39e+00  5.05e-02  0.700  20.4
    4    -1354.9310591496073357    -7.62e-02  7.59e-02  3.66e+00  3.17e-02  0.000  19.9
    5    -1355.0944057522870025    -1.63e-01  1.03e-02  5.29e-01  4.17e-03  0.000  20.5
                              *** Initializing SOSCF ***
---------------------------------------S-O-S-C-F--------------------------------------
Iteration    Energy (Eh)           Delta-E    RMSDP     MaxDP     MaxGrad    Time(sec)
--------------------------------------------------------------------------------------
    6    -1355.0948939805284681    -4.88e-04  5.29e-03  2.33e-01  2.28e-03    18.0
               *** Restarting incremental Fock matrix formation ***
    7    -1355.0951055561999965    -2.12e-04  2.69e-03  1.10e-01  1.59e-03    40.8
    8    -1355.0951813970655166    -7.58e-05  3.04e-03  1.05e-01  6.58e-04    34.1
    9    -1355.0951985196729765    -1.71e-05  1.05e-03  4.96e-02  3.07e-04    33.1
   10    -1355.0952074848437405    -8.97e-06  2.81e-04  1.02e-02  8.06e-05    31.4
   11    -1355.0952078037653337    -3.19e-07  1.12e-04  5.75e-03  2.49e-05    28.6
   12    -1355.0952078650548174    -6.13e-08  1.31e-04  5.54e-03  1.62e-05    27.0
   13    -1355.0952078806740246    -1.56e-08  1.07e-04  5.05e-03  2.07e-06    25.3
                  *** Gradient check signals convergence ***

               *****************************************************
               *                     SUCCESS                       *
               *           SCF CONVERGED AFTER  13 CYCLES          *
               *****************************************************

Recomputing exchange energy using gridx3       ... done (   77.954 sec)
Old exchange energy                            :    -50.807655263 Eh
New exchange energy                            :    -50.807632025 Eh
Exchange energy change after final integration :      0.000023238 Eh
Total energy after final integration           :  -1355.095184619 Eh
             **** ENERGY FILE WAS UPDATED (input.en.tmp) ****

----------------
TOTAL SCF ENERGY
----------------

Total Energy       :      -1355.09518461903212 Eh          -36874.01461 eV

Components:
Nuclear Repulsion  :       2312.64502242839080 Eh           62930.27037 eV
Electronic Energy  :      -3667.74023028521469 Eh          -99804.28562 eV
One Electron Energy:      -6446.59658356048021 Eh         -175420.81126 eV
Two Electron Energy:       2778.85635327526552 Eh           75616.52564 eV

Virial components:
Potential Energy   :      -2702.74090225460441 Eh          -73545.31892 eV
Kinetic Energy     :       1347.64571763557228 Eh           36671.30431 eV
Virial Ratio       :          2.00552776362955

DFT components:
N(Alpha)           :       92.000111149160 electrons
N(Beta)            :       92.000111149160 electrons
N(Total)           :      184.000222298319 electrons
E(XC)              :     -114.884974355414 Eh       

---------------
SCF CONVERGENCE
---------------

  Last Energy change         ...    1.5619e-08  Tolerance :   1.0000e-08
  Last MAX-Density change    ...    5.0539e-03  Tolerance :   1.0000e-07
  Last RMS-Density change    ...    1.0733e-04  Tolerance :   5.0000e-09
  Last DIIS Error            ...    2.2803e-03  Tolerance :   5.0000e-07
  Last Orbital Gradient      ...    2.0652e-06  Tolerance :   1.0000e-05
  Last Orbital Rotation      ...    6.1312e-06  Tolerance :   1.0000e-05


----------------
ORBITAL ENERGIES
----------------

  NO   OCC          E(Eh)            E(eV) 
   0   2.0000     -88.989620     -2421.5307 
   1   2.0000     -19.268116      -524.3121 
   2   2.0000     -19.267494      -524.2952 
   3   2.0000     -14.428115      -392.6090 
   4   2.0000     -10.365213      -282.0518 
   5   2.0000     -10.363967      -282.0179 
   6   2.0000     -10.327783      -281.0333 
   7   2.0000     -10.310858      -280.5727 
   8   2.0000     -10.310638      -280.5667 
   9   2.0000     -10.302479      -280.3447 
  10   2.0000     -10.301086      -280.3068 
  11   2.0000     -10.297589      -280.2117 
  12   2.0000     -10.294659      -280.1319 
  13   2.0000     -10.289240      -279.9845 
  14   2.0000     -10.288016      -279.9511 
  15   2.0000     -10.286902      -279.9208 
  16   2.0000     -10.282266      -279.7947 
  17   2.0000     -10.279582      -279.7217 
  18   2.0000     -10.274507      -279.5836 
  19   2.0000     -10.274370      -279.5798 
  20   2.0000     -10.273506      -279.5563 
  21   2.0000     -10.263413      -279.2817 
  22   2.0000      -8.082280      -219.9300 
  23   2.0000      -6.925956      -188.4648 
  24   2.0000      -6.833980      -185.9621 
  25   2.0000      -6.036442      -164.2599 
  26   2.0000      -6.031899      -164.1363 
  27   2.0000      -6.029934      -164.0828 
  28   2.0000      -1.198042       -32.6004 
  29   2.0000      -1.127516       -30.6813 
  30   2.0000      -1.044474       -28.4216 
  31   2.0000      -1.005903       -27.3720 
  32   2.0000      -0.950444       -25.8629 
  33   2.0000      -0.938302       -25.5325 
  34   2.0000      -0.879570       -23.9343 
  35   2.0000      -0.859645       -23.3921 
[...]
126:   2167.82   0.054471  275.27  0.007841  (-0.072262  0.050069 -0.010609)
127:   2611.69   0.011405   57.63  0.001363  ( 0.017080  0.017566 -0.027612)
128:   2970.87   0.016038   81.05  0.001685  (-0.032866  0.020588 -0.013438)
129:   2978.07   0.027649  139.73  0.002897  ( 0.026440 -0.041223 -0.022335)
130:   3075.56   0.001321    6.68  0.000134  (-0.003778 -0.002163 -0.010728)
131:   3078.69   0.003560   17.99  0.000361  ( 0.001166 -0.010878 -0.015531)
132:   3079.55   0.002123   10.73  0.000215  ( 0.007155  0.010162 -0.007791)
133:   3083.49   0.006257   31.62  0.000633  ( 0.019444 -0.014974  0.005564)
134:   3101.41   0.009342   47.21  0.000940  ( 0.009535  0.016885 -0.023747)
135:   3105.61   0.004960   25.07  0.000498  (-0.017014 -0.014393  0.001329)
136:   3158.66   0.000624    3.16  0.000062  ( 0.006882  0.003276 -0.001897)
137:   3160.23   0.001902    9.61  0.000188  ( 0.010822  0.006248 -0.005623)
138:   3160.57   0.003951   19.96  0.000390  (-0.005565 -0.017106 -0.008154)
139:   3165.55   0.001000    5.06  0.000099  (-0.003553  0.006597 -0.006517)
140:   3167.38   0.005805   29.34  0.000572  (-0.009729  0.019602 -0.009648)
141:   3169.65   0.005864   29.63  0.000577  (-0.023812  0.002882  0.001428)
142:   3173.38   0.004559   23.04  0.000448  ( 0.010723  0.016168 -0.008478)
143:   3182.73   0.003108   15.70  0.000305  ( 0.004034 -0.014326 -0.009120)
144:   3185.79   0.002834   14.32  0.000278  (-0.008021 -0.005516 -0.013523)
145:   3192.36   0.001603    8.10  0.000157  ( 0.000412 -0.010699  0.006488)
146:   3201.83   0.000258    1.30  0.000025  ( 0.004784 -0.001288  0.000760)
147:   3210.52   0.000855    4.32  0.000083  ( 0.008401  0.003542  0.000117)
148:   3225.67   0.004682   23.66  0.000453  ( 0.004938  0.020039 -0.005191)
149:   3235.39   0.004890   24.71  0.000472  (-0.021298 -0.001680 -0.003908)
150:   3245.25   0.000431    2.18  0.000041  (-0.001744 -0.002623 -0.005614)
151:   3259.40   0.000721    3.64  0.000069  (-0.000587 -0.000571  0.008267)
152:   3284.38   0.000152    0.77  0.000014  ( 0.000308  0.000729 -0.003711)

* The epsilon (eps) is given for a Dirac delta lineshape.
** The dipole moment derivative (T) already includes vibrational overlap.

The first frequency considered to be a vibration is 8
The total number of vibrations considered is 145


--------------------------
THERMOCHEMISTRY AT 298.15K
--------------------------

Temperature         ...   298.15 K
Pressure            ...     1.00 atm
Total Mass          ...   343.10 AMU
Quasi RRHO          ...     True
Cut-Off Frequency   ...     1.00 cm^-1

Throughout the following assumptions are being made:
  (1) The electronic state is orbitally nondegenerate
  (2) There are no thermally accessible electronically excited states
  (3) Hindered rotations indicated by low frequency modes are not
      treated as such but are treated as vibrations and this may
      cause some error
  (4) All equations used are the standard statistical mechanics
      equations for an ideal gas
  (5) All vibrations are strictly harmonic

freq.      41.58  E(vib)   ...       0.54 
freq.      45.07  E(vib)   ...       0.53 
freq.      58.73  E(vib)   ...       0.51 
freq.      71.45  E(vib)   ...       0.50 
freq.      78.13  E(vib)   ...       0.49 
freq.      91.85  E(vib)   ...       0.47 
freq.     108.65  E(vib)   ...       0.45 
freq.     119.11  E(vib)   ...       0.44 
freq.     137.34  E(vib)   ...       0.42 
freq.     158.38  E(vib)   ...       0.39 
freq.     175.19  E(vib)   ...       0.38 
freq.     190.37  E(vib)   ...       0.36 
freq.     215.82  E(vib)   ...       0.34 
freq.     230.92  E(vib)   ...       0.32 
freq.     237.45  E(vib)   ...       0.32 
freq.     252.20  E(vib)   ...       0.30 
freq.     274.75  E(vib)   ...       0.28 
freq.     289.61  E(vib)   ...       0.27 
freq.     299.06  E(vib)   ...       0.26 
freq.     303.93  E(vib)   ...       0.26 
freq.     317.56  E(vib)   ...       0.25 
freq.     339.43  E(vib)   ...       0.23 
freq.     341.34  E(vib)   ...       0.23 
freq.     347.95  E(vib)   ...       0.23 
freq.     371.40  E(vib)   ...       0.21 
freq.     375.31  E(vib)   ...       0.21 
freq.     380.87  E(vib)   ...       0.21 
freq.     397.02  E(vib)   ...       0.20 
freq.     440.21  E(vib)   ...       0.17 
freq.     465.42  E(vib)   ...       0.16 
freq.     475.02  E(vib)   ...       0.15 
freq.     497.38  E(vib)   ...       0.14 
freq.     527.83  E(vib)   ...       0.13 
freq.     538.05  E(vib)   ...       0.12 
freq.     543.90  E(vib)   ...       0.12 
freq.     558.40  E(vib)   ...       0.12 
freq.     578.80  E(vib)   ...       0.11 
freq.     587.56  E(vib)   ...       0.10 
freq.     594.30  E(vib)   ...       0.10 
freq.     613.69  E(vib)   ...       0.10 
freq.     616.26  E(vib)   ...       0.09 
freq.     681.76  E(vib)   ...       0.08 
freq.     709.68  E(vib)   ...       0.07 
freq.     738.88  E(vib)   ...       0.06 
freq.     747.28  E(vib)   ...       0.06 
freq.     763.34  E(vib)   ...       0.06 
freq.     768.52  E(vib)   ...       0.06 
freq.     777.62  E(vib)   ...       0.05 
freq.     787.90  E(vib)   ...       0.05 
freq.     799.24  E(vib)   ...       0.05 
freq.     826.38  E(vib)   ...       0.04 
freq.     883.47  E(vib)   ...       0.04 
freq.     887.98  E(vib)   ...       0.04 
freq.     894.20  E(vib)   ...       0.03 
freq.     897.16  E(vib)   ...       0.03 
freq.     900.51  E(vib)   ...       0.03 
freq.     950.02  E(vib)   ...       0.03 
freq.     951.59  E(vib)   ...       0.03 
freq.     952.37  E(vib)   ...       0.03 
freq.     982.84  E(vib)   ...       0.02 
freq.     984.80  E(vib)   ...       0.02 
freq.     993.01  E(vib)   ...       0.02 
freq.     994.65  E(vib)   ...       0.02 
freq.    1000.50  E(vib)   ...       0.02 
freq.    1016.12  E(vib)   ...       0.02 
freq.    1018.31  E(vib)   ...       0.02 
freq.    1027.24  E(vib)   ...       0.02 
freq.    1060.16  E(vib)   ...       0.02 
freq.    1077.13  E(vib)   ...       0.02 
freq.    1088.45  E(vib)   ...       0.02 
freq.    1093.82  E(vib)   ...       0.02 
freq.    1107.71  E(vib)   ...       0.02 
freq.    1120.63  E(vib)   ...       0.01 
freq.    1124.89  E(vib)   ...       0.01 
freq.    1146.86  E(vib)   ...       0.01 
freq.    1154.56  E(vib)   ...       0.01 
freq.    1171.47  E(vib)   ...       0.01 
freq.    1179.17  E(vib)   ...       0.01 
freq.    1193.18  E(vib)   ...       0.01 
freq.    1195.82  E(vib)   ...       0.01 
freq.    1205.44  E(vib)   ...       0.01 
freq.    1207.26  E(vib)   ...       0.01 
freq.    1229.03  E(vib)   ...       0.01 
freq.    1262.32  E(vib)   ...       0.01 
freq.    1265.61  E(vib)   ...       0.01 
freq.    1270.00  E(vib)   ...       0.01 
freq.    1290.95  E(vib)   ...       0.01 
freq.    1317.74  E(vib)   ...       0.01 
freq.    1322.44  E(vib)   ...       0.01 
freq.    1338.57  E(vib)   ...       0.01 
freq.    1370.65  E(vib)   ...       0.01 
freq.    1380.17  E(vib)   ...       0.01 
freq.    1394.96  E(vib)   ...       0.00 
freq.    1419.57  E(vib)   ...       0.00 
freq.    1421.16  E(vib)   ...       0.00 
freq.    1429.07  E(vib)   ...       0.00 
freq.    1438.99  E(vib)   ...       0.00 
freq.    1453.38  E(vib)   ...       0.00 
freq.    1475.89  E(vib)   ...       0.00 
freq.    1478.16  E(vib)   ...       0.00 
freq.    1479.78  E(vib)   ...       0.00 
freq.    1487.77  E(vib)   ...       0.00 
freq.    1489.46  E(vib)   ...       0.00 
freq.    1491.60  E(vib)   ...       0.00 
freq.    1494.32  E(vib)   ...       0.00 
freq.    1496.12  E(vib)   ...       0.00 
freq.    1502.88  E(vib)   ...       0.00 
freq.    1509.55  E(vib)   ...       0.00 
freq.    1512.57  E(vib)   ...       0.00 
freq.    1514.84  E(vib)   ...       0.00 
freq.    1517.71  E(vib)   ...       0.00 
freq.    1530.59  E(vib)   ...       0.00 
freq.    1534.85  E(vib)   ...       0.00 
freq.    1548.41  E(vib)   ...       0.00 
freq.    1581.64  E(vib)   ...       0.00 
freq.    1652.38  E(vib)   ...       0.00 
freq.    1680.91  E(vib)   ...       0.00 
freq.    1805.54  E(vib)   ...       0.00 
freq.    2167.82  E(vib)   ...       0.00 
freq.    2611.69  E(vib)   ...       0.00 
freq.    2970.87  E(vib)   ...       0.00 
freq.    2978.07  E(vib)   ...       0.00 
freq.    3075.56  E(vib)   ...       0.00 
freq.    3078.69  E(vib)   ...       0.00 
freq.    3079.55  E(vib)   ...       0.00 
freq.    3083.49  E(vib)   ...       0.00 
freq.    3101.41  E(vib)   ...       0.00 
freq.    3105.61  E(vib)   ...       0.00 
freq.    3158.66  E(vib)   ...       0.00 
freq.    3160.23  E(vib)   ...       0.00 
freq.    3160.57  E(vib)   ...       0.00 
freq.    3165.55  E(vib)   ...       0.00 
freq.    3167.38  E(vib)   ...       0.00 
freq.    3169.65  E(vib)   ...       0.00 
freq.    3173.38  E(vib)   ...       0.00 
freq.    3182.73  E(vib)   ...       0.00 
freq.    3185.79  E(vib)   ...       0.00 
freq.    3192.36  E(vib)   ...       0.00 
freq.    3201.83  E(vib)   ...       0.00 
freq.    3210.52  E(vib)   ...       0.00 
freq.    3225.67  E(vib)   ...       0.00 
freq.    3235.39  E(vib)   ...       0.00 
freq.    3245.25  E(vib)   ...       0.00 
freq.    3259.40  E(vib)   ...       0.00 
freq.    3284.38  E(vib)   ...       0.00 

------------
INNER ENERGY
------------

The inner energy is: U= E(el) + E(ZPE) + E(vib) + E(rot) + E(trans)
    E(el)   - is the total energy from the electronic structure calculation
              = E(kin-el) + E(nuc-el) + E(el-el) + E(nuc-nuc)
    E(ZPE)  - the the zero temperature vibrational energy from the frequency calculation
    E(vib)  - the the finite temperature correction to E(ZPE) due to population
              of excited vibrational states
    E(rot)  - is the rotational thermal energy
    E(trans)- is the translational thermal energy

Summary of contributions to the inner energy U:
Electronic energy                ...  -1355.12671324 Eh
Zero point energy                ...      0.43141734 Eh     270.72 kcal/mol
Thermal vibrational correction   ...      0.02006249 Eh      12.59 kcal/mol
Thermal rotational correction    ...      0.00141627 Eh       0.89 kcal/mol
Thermal translational correction ...      0.00141627 Eh       0.89 kcal/mol
-----------------------------------------------------------------------
Total thermal energy                  -1354.67240086 Eh


Summary of corrections to the electronic energy:
(perhaps to be used in another calculation)
Total thermal correction                  0.02289503 Eh      14.37 kcal/mol
Non-thermal (ZPE) correction              0.43141734 Eh     270.72 kcal/mol
-----------------------------------------------------------------------
Total correction                          0.45431238 Eh     285.08 kcal/mol


--------
ENTHALPY
--------

The enthalpy is H = U + kB*T
                kB is Boltzmann's constant
Total thermal energy              ...  -1354.67240086 Eh 
Thermal Enthalpy correction       ...      0.00094421 Eh       0.59 kcal/mol
-----------------------------------------------------------------------
Total Enthalpy                    ...  -1354.67145665 Eh


Note: Only C1 symmetry has been detected, increase convergence thresholds 
      if your molecule has a higher symmetry. Symmetry factor of 1.0 is   
      used for the rotational entropy correction. 
 

Note: Rotational entropy computed according to Herzberg 
Infrared and Raman Spectra, Chapter V,1, Van Nostrand Reinhold, 1945 
Point Group:  C1, Symmetry Number:   1  
Rotational constants in cm-1:     0.011452     0.005381     0.004409 

Vibrational entropy computed according to the QRRHO of S. Grimme
Chem.Eur.J. 2012 18 9955 using a reference frequency of 100.0 cm-1


-------
ENTROPY
-------

The entropy contributions are T*S = T*(S(el)+S(vib)+S(rot)+S(trans))
     S(el)   - electronic entropy
     S(vib)  - vibrational entropy
     S(rot)  - rotational entropy
     S(trans)- translational entropy
The entropies will be listed as multiplied by the temperature to get
units of energy

Electronic entropy                ...      0.00000000 Eh      0.00 kcal/mol
Vibrational entropy               ...      0.03439044 Eh     21.58 kcal/mol
Rotational entropy                ...      0.01664809 Eh     10.45 kcal/mol
Translational entropy             ...      0.02061729 Eh     12.94 kcal/mol
-----------------------------------------------------------------------
Final entropy term                ...      0.07165582 Eh     44.96 kcal/mol

In case the symmetry of your molecule has not been determined correctly
or in case you have a reason to use a different symmetry number we print 
out the resulting rotational entropy values for sn=1,12:

 non-linear molecules -----------------------------------
|  sn= 1 | S(rot)=       0.01664809 Eh     10.45 kcal/mol|
|  sn= 2 | S(rot)=       0.01599364 Eh     10.04 kcal/mol|
|  sn= 3 | S(rot)=       0.01561081 Eh      9.80 kcal/mol|
|  sn= 4 | S(rot)=       0.01533918 Eh      9.63 kcal/mol|
|  sn= 5 | S(rot)=       0.01512849 Eh      9.49 kcal/mol|
|  sn= 6 | S(rot)=       0.01495635 Eh      9.39 kcal/mol|
|  sn= 7 | S(rot)=       0.01481080 Eh      9.29 kcal/mol|
|  sn= 8 | S(rot)=       0.01468473 Eh      9.21 kcal/mol|
|  sn= 9 | S(rot)=       0.01457352 Eh      9.15 kcal/mol|
|  sn=10 | S(rot)=       0.01447404 Eh      9.08 kcal/mol|
|  sn=11 | S(rot)=       0.01438405 Eh      9.03 kcal/mol|
|  sn=12 | S(rot)=       0.01430189 Eh      8.97 kcal/mol|
 linear molecules ---------------------------------------
|  Dinfh | S(rot)=       0.01044706 Eh      6.56 kcal/mol|
|  Cinfv | S(rot)=       0.01110152 Eh      6.97 kcal/mol|
 --------------------------------------------------------


-------------------
GIBBS FREE ENERGY
-------------------

The Gibbs free energy is G = H - T*S

Total enthalpy                    ...  -1354.67145665 Eh 
Total entropy correction          ...     -0.07165582 Eh    -44.96 kcal/mol
-----------------------------------------------------------------------
Final Gibbs free energy         ...  -1354.74311247 Eh

For completeness - the Gibbs free energy minus the electronic energy
G-E(el)                           ...      0.38360076 Eh    240.71 kcal/mol


Maximum memory used throughout the entire PROP-calculation: 448.3 MB

--------------------------------
SUGGESTED CITATIONS FOR THIS RUN
--------------------------------

Below you find a list of papers that are relevant to this ORCA run
We neither can nor want to force you to cite these papers, but we appreciate if you do
You receive ORCA, which is the product of decades of hard work by many enthusiastic individuals, for free
The only thing we kindly ask in return is that you cite our papers,
We deeply appreciate it, if you show your appreciation for ORCA by not just citing the generic ORCA reference.

Please note that relegating all ORCA citations to the supporting information does *not* help us.
SI sections are not indexed - citations you put there will not count into any citation statistics
But we need these citations in order to attract the funding resources that allow us to do what we are doing

Therefore, if you are a happy ORCA user, please consider citing a few of the papers listed below in the main body of your paper

In addition to the list printed below, the program has created the file input.bibtex that contains the list in bibtex format
You can import this file easily into all common literature databanks and citation aid programs


List of essential papers. We consider these as the minimum necessary citations

  1. Neese, F.
     Software update: the ORCA program system, version 6.0
     WIRES Comput. Molec. Sci. 2025 15(1), e70019
     doi.org/10.1002/wcms.7019

List of papers to cite with high priority. The work reported in these papers was absolutely
necessary for this run to complete.
Our perspective: the developers of density functionals and basis sets usually get cited in chemistry papers
Good! But without the algorithms to do something with them, the functionals or basis sets would not do anything.
Hence, in our opinion, the algorithm design and method developments papers are equally worthy of getting cited

  1. Neese, F.
     An improvement of the resolution of the identity approximation for the formation of the Coulomb matrix
     J. Comp. Chem. 2003 24(14), 1740-1747
     doi.org/10.1002/jcc.10318
  2. Neese, F.; Wennmohs, F.; Hansen, A.; Becker, U.
     Efficient, approximate and parallel Hartree-Fock and hybrid DFT calculations. A 'chain-of-spheres' algorithm for the Hartree-Fock exchange
     Chem. Phys. 2009 356(1-3), 98-109
     doi.org/10.1016/j.chemphys.2008.10.036
  3. Grimme, S.; Antony, J.; Ehrlich, S.; Krieg, H.
     A consistent and accurate ab initio parametrization of density functional dispersion correction (DFT-D) for the 94 elements H-Pu
     J. Chem. Phys. 2010 132 , 154104
     doi.org/10.1063/1.3382344
  4. Bykov, D.; Petrenko, T.; Izsak, R.; Kossmann, S.; Becker, U.; Valeev, E.; Neese, F.
     Efficient implementation of the analytic second derivatives of Hartree-Fock and hybrid DFT energies: a detailed analysis of different approximations
     Molec. Phys. 2015 113 , 1961-1977
     doi.org/10.1080/00268976.2015.1025114
  5. Helmich-Paris, B.; de Souza, B.; Neese, F.; Izsák, R.
     An improved chain of spheres for exchange algorithm
     J. Chem. Phys. 2021 155(10), 104109
     doi.org/10.1063/5.0058766
  6. Neese, F.
     The SHARK Integral Generation and Digestion System
     J. Comp. Chem. 2022 44(3), 381
     doi.org/10.1002/jcc.26942

List of suggested additional citations. These are papers that are important in the 'surrounding' of 
of this run, or papers that preceded the highly important papers. If you like your results we are grateful for a citation.

  1. Izsak, R.; Neese, F.
     An overlap fitted chain of spheres exchange method
     J. Chem. Phys. 2011 135 , 144105
     doi.org/10.1063/1.3646921
  2. Izsak, R.; Hansen, A.; Neese, F.
     The resolution of identity and chain of spheres approximations for the LPNO-CCSD singles Fock term
     Molec. Phys. 2012 110 , 2413-2417
     doi.org/10.1080/00268976.2012.687466
  3. Neese, F.
     The ORCA program system
     WIRES Comput. Molec. Sci. 2012 2(1), 73-78
     doi.org/10.1002/wcms.81
  4. Izsak, R.; Neese, F.; Klopper, W.
     Robust fitting techniques in the chain of spheres approximation to the Fock exchange: The role of the complementary space
     J. Chem. Phys. 2013 139 , 
     doi.org/10.1063/1.4819264
  5. Neese, F.
     Software update: the ORCA program system, version 4.0
     WIRES Comput. Molec. Sci. 2018 8(1), 1-6
     doi.org/10.1002/wcms.1327
  6. Neese, F.; Wennmohs, F.; Becker, U.; Riplinger, C.
     The ORCA quantum chemistry program package
     J. Chem. Phys. 2020 152(22), 224108
     doi.org/10.1063/5.0004608
  7. Neese, F.
     Software update: The ORCA program system—Version 5.0
     WIRES Comput. Molec. Sci. 2022 12(1), e1606
     doi.org/10.1002/wcms.1606

List of optional additional citations

  1. Neese, F.
     Approximate second-order SCF convergence for spin unrestricted wavefunctions
     Chem. Phys. Lett. 2000 325(1-3), 93-98
     doi.org/10.1016/s0009-2614(00)00662-x

Timings for individual modules:

Sum of individual times          ...    10523.972 sec (= 175.400 min)
Startup calculation              ...       66.441 sec (=   1.107 min)   0.6 %
SCF iterations                   ...     3586.705 sec (=  59.778 min)  34.1 %
Property integrals               ...     1210.473 sec (=  20.175 min)  11.5 %
SCF Response                     ...     1212.450 sec (=  20.208 min)  11.5 %
Property calculations            ...     2619.652 sec (=  43.661 min)  24.9 %
SCF Gradient evaluation          ...     1827.212 sec (=  30.454 min)  17.4 %
Geometry relaxation              ...        1.038 sec (=   0.017 min)   0.0 %
                             ****ORCA TERMINATED NORMALLY****
TOTAL RUN TIME: 0 days 4 hours 19 minutes 4 seconds 357 msec
