
                                 *****************
                                 * O   R   C   A *
                                 *****************

                                            #,                                       
                                            ###                                      
                                            ####                                     
                                            #####                                    
                                            ######                                   
                                           ########,                                 
                                     ,,################,,,,,                         
                               ,,#################################,,                 
                          ,,##########################################,,             
                       ,#########################################, ''#####,          
                    ,#############################################,,   '####,        
                  ,##################################################,,,,####,       
                ,###########''''           ''''###############################       
              ,#####''   ,,,,##########,,,,          '''####'''          '####       
            ,##' ,,,,###########################,,,                        '##       
           ' ,,###''''                  '''############,,,                           
         ,,##''                                '''############,,,,        ,,,,,,###''
      ,#''                                            '''#######################'''  
     '                                                          ''''####''''         
             ,#######,   #######,   ,#######,      ##                                
            ,#'     '#,  ##    ##  ,#'     '#,    #''#        ,####,    ,#,          
            ##       ##  ##   ,#'  ##            #'  '#       #'       ,# #          
            ##       ##  #######   ##           ,######,      #####,      #          
            '#,     ,#'  ##    ##  '#,     ,#' ,#      #,     #,   #      #          
             '#######'   ##     ##  '#######'  #'      '#     '####' #    #          



                #########################################################
                #                        -***-                          #
                #          Department of theory and spectroscopy        #
                #                                                       #
                #                      Frank Neese                      #
                #                                                       #
                #     Directorship, Architecture, Infrastructure        #
                #                    SHARK, DRIVERS                     #
                #        Core code/Algorithms in most modules           #
                #                                                       #
                #        Max Planck Institute fuer Kohlenforschung      #
                #                Kaiser Wilhelm Platz 1                 #
                #                 D-45470 Muelheim/Ruhr                 #
                #                      Germany                          #
                #                                                       #
                #                  All rights reserved                  #
                #                        -***-                          #
                #########################################################


                         Program Version 6.1.0  -  RELEASE   -
                                (GIT: $679e74b$)
                          ($2025-06-10 18:02:51 +0200$)


 With contributions from (in alphabetic order):
[Max-Planck-Institut fuer Kohlenforschung]                               
  Daniel Aravena         : Magnetic Suceptibility                        
  Michael Atanasov       : Ab Initio Ligand Field Theory (pilot matlab implementation)
  Alexander A. Auer      : GIAO ZORA, VPT2 properties, NMR spectrum      
  Ute Becker             : All parallelization in ORCA, NUMFREQ, NUMCALC 
  Giovanni Bistoni       : ED, misc. LED, open-shell LED, HFLD           
  Dmytro Bykov           : pre 5.0 version of the SCF Hessian            
  Marcos Casanova-Páez   : Triplet and SCS-CIS(D). UHF-(DLPNO)-IP/EA/STEOM-CCSD. UHF-CVS-IP/STEOM-CCSD   
  Vijay G. Chilkuri      : MRCI spin determinant printing, contributions to CSF-ICE 
  Pauline Colinet        : FMM embedding                                 
  Dipayan Datta          : RHF DLPNO-CCSD density                        
  Achintya Kumar Dutta   : EOM-CC, STEOM-CC                              
  Nicolas Foglia         : Exact transition moments, OPA infrastructure, MCD improvements    
  Dmitry Ganyushin       : Spin-Orbit,Spin-Spin,Magnetic field MRCI      
  Miquel Garcia-Rates    : C-PCM and meta-GGA Hessian, CCSD/C-PCM, Gaussian charge scheme 
  Tiago L. C. Gouveia    : GS-ROHF, GS-ROCIS                             
  Yang Guo               : DLPNO-NEVPT2, F12-NEVPT2, CIM, IAO-localization        
  Andreas Hansen         : Spin unrestricted coupled pair/coupled cluster methods 
  Ingolf Harden          : AUTO-CI MPn and infrastructure                
  Benjamin Helmich-Paris : MC-RPA, TRAH-(SCF,CASSCF), AVAS, COSX integrals, SCF dyn. polar., MC-PDFT, srDFT 
  Lee Huntington         : MR-EOM, pCC                                   
  Robert Izsak           : Overlap fitted RIJCOSX, COSX-SCS-MP3, EOM     
  Riya Kayal             : Wick's Theorem for AUTO-CI, AUTO-CI UHF-CCSDT 
  Emily Kempfer          : AUTO-CI RHF CISDT and CCSDT, approximate NEVPT4
  Christian Kollmar      : KDIIS, OOCD, Brueckner-CCSD(T), CCSD density, CASPT2, CASPT2-K, improved NEVPT2 
  Axel Koslowski         : Symmetry handling                             
  Simone Kossmann        : meta-GGA functionals, TD-DFT gradient, OOMP2, (MP2 Hessian; deprecated post 5.0) 
  Lucas Lang             : DCDCAS, Hyperfine gauge corrections, ICE-SOC+SSC
  Marvin Lechner         : AUTO-CI (C++ implementation), FIC-MRCC        
  Spencer Leger          : CASSCF response                               
  Dagmar Lenk            : GEPOL surface, SMD, ORCA-2-JSON               
  Dimitrios Liakos       : Extrapolation schemes; Compound Job, Property file
  Dimitrios Manganas     : Further ROCIS development; embedding schemes. LFT, Crystal Embedding 
  Dimitrios Pantazis     : SARC Basis sets                               
  Anastasios Papadopoulos: AUTO-CI, single reference methods and gradients 
  Taras Petrenko         : pre 6.0 DFT Hessian and TD-DFT gradient,  ECA, NRVS 
  Petra Pikulova         : Analytic Raman intensities                    
  Peter Pinski           : DLPNO-MP2, DLPNO-MP2 Gradient                 
  Shashank Vittal Rao    : ES-AILFT, MagRelax                            
  Christoph Reimann      : Effective Core Potentials                     
  Marius Retegan         : Local ZFS, SOC                                
  Christoph Riplinger    : Optimizer, TS searches, QM/MM, DLPNO-CCSD(T), (RO)-DLPNO pert. Triples 
  Michael Roemelt        : Original ROCIS implementation, recursive CI coupling coefficients
  Masaaki Saitow         : Open-shell DLPNO-CCSD energy and density      
  Barbara Sandhoefer     : DKH picture change effects                    
  Yorick L. A. Schmerwitz: GMF and freeze-and-release deltaSCF, NEB S-IDPP initial path                    
  Kantharuban Sivalingam : CASSCF convergence/infrastructure, NEVPT2, NEVPT3, NEVPT4(SD), FIC-MRCI and CEPA variants
  Bernardo de Souza      : ESD, SOC TD-DFT                               
  Georgi L. Stoychev     : AutoAux, RI-MP2 NMR, DLPNO-MP2 response, X2C  
  Van Anh Tran           : RI-MP2 g-tensors                              
  Willem Van den Heuvel  : Paramagnetic NMR                              
  Zikuan Wang            : NOTCH, Electric field optimization            
  Frank Wennmohs         : Technical directorship and infrastructure     
  Hang Xu                : AUTO-CI-Response properties                   
                                                                         
[FACCTs GmbH]                                                            
  Markus Bursch, Nicolas Foglia, Miquel Garcia-Rates, Ingolf Harden, Hagen Neugebauer, Anastasios Papadopoulos, 
  Christoph Riplinger, Bernardo de Souza, Georgi L. Stoychev                                                    
                                                                 
  APM, various basis sets, CI-OPT, improved COSX, DLPNO-Multilevel,           
  DOCKER, DRACO, updates on ESD, Fragmentator, GOAT, IRC, LR-CPCM, L-BFGS, MBIS, meta-GGA TD-DFT gradient, ML-optimized integration grids, 
  MM, NACMEs, nearIR, NEB, NEB-TS, NL-DFT gradient (VV10), 2- and 3-layer-ONIOM, interface openCOSMO-RS, QMMM,   
  Crystal-QMMM, RESP, rigid body optimization, SF, symmetry and pop. for TD-DFT, various functionals, SOLVATOR                                   
                                                                         
[Other institutions]                                                     
  V. Asgeirsson          : NEB                                           
  Christoph Bannwarth    : sTDA-DFT, sTD-DFT, PBEh-3c, B97-3c, D3        
  Giovanni Bistoni       : ETS/NOCV, ADLD/ADEX, COVALED                  
  Martin Brehm           : Molecular dynamics                            
  Ronald Cardenas        : ETS/NOCV                                      
  Martina Colucci        : COVALED                                       
  Sebastian Ehlert       : rSCAN, r2SCAN, r2SCAN-3c, D4, dhf basis sets  
  Marvin Friede          : D4 for Fr, Ra, Ac-Lr                          
  Lars Goerigk           : TD-DFT with DH, B97 family of functionals     
  Stefan Grimme          : VdW corrections, initial TS optimization, DFT functionals, gCP, sTDA/sTD-DF 
  Waldemar Hujo          : DFT-NL                                        
  H. Jonsson             : NEB                                           
  Holger Kruse           : gCP                                           
  Marcel Mueller         : wB97X-3c, vDZP basis set                      
  Hagen Neugebauer       : wr2SCAN, Native XTB                           
  Gianluca Regni         : ADLD/ADEX                                     
  Tobias Risthaus        : pre 6.0 range-separated hybrid DFT and stability analysis
  Lukas Wittmann         : regularized MP2, r2SCAN double-hybrids, wr2SCAN        
                                                                         
We gratefully acknowledge several colleagues who have allowed us to      
interface, adapt or use parts of their codes:                            
  Ed Valeev, F. Pavosevic, A. Kumar             : LibInt (2-el integral package), F12 methods 
  Garnet Chan, S. Sharma, J. Yang, R. Olivares  : DMRG                   
  Ulf Ekstrom                                   : XCFun DFT Library      
  Mihaly Kallay                                 : mrcc  (arbitrary order and MRCC methods)
  Frank Weinhold                                : gennbo (NPA and NBO analysis)           
  Simon Mueller                                 : openCOSMO-RS                            
  Christopher J. Cramer and Donald G. Truhlar   : smd solvation model                     
  S Lehtola, MJT Oliveira, MAL Marques          : LibXC Library                           
  Liviu Ungur et al                             : ANISO software                          


 Your calculation uses the libint2 library for the computation of 2-el integrals
 For citations please refer to: http://libint.valeyev.net

 Your ORCA version has been built with support for libXC version: 7.0.0
 For citations please refer to: https://libxc.gitlab.io

 This ORCA versions uses:
   CBLAS   interface :  Fast vector & matrix operations
   LAPACKE interface :  Fast linear algebra routines
   SCALAPACK package :  Parallel linear algebra routines
   Shared memory     :  Shared parallel matrices
   BLAS/LAPACK       :  OpenBLAS 0.3.29  USE64BITINT DYNAMIC_ARCH NO_AFFINITY Haswell SINGLE_THREADED
        Core in use  :  Haswell
   Copyright (c) 2011-2014, The OpenBLAS Project


  ***********************************
  * Starting time: Tue Jul 15 15:40:45 2025
  * Host name:     node310.cluster
  * Process ID:    2935851
  * Working dir.:  /scratch/53031207/_e0ifd0
  ***********************************

NOTE: MaxCore=3840 MB was set to SCF,MP2,MDCI,CIPSI,MRCI,RASCI and CIS
      => If you want to overwrite this, your respective input block should be placed after the MaxCore statement
Your calculation utilizes the atom-pairwise dispersion correction
with the zero-damping scheme (D30)


XCFun DFT library Copyright 2009-2010 Ulf Ekstrom and contributors.
See http://admol.org/xcfun for more information.
This is free software; see the source code for copying conditions.
There is ABSOLUTELY NO WARRANTY; not even for MERCHANTABILITY or FITNESS FOR A PARTICULAR PURPOSE.
For details see the documentation.
Scientific users of this library should cite U. Ekstrom, L. Visscher, R. Bast, A. J. Thorvaldsen and K. Ruud;
J.Chem.Theor.Comp. 2010, DOI: 10.1021/ct100117s
XCFun Version 0.99 

Warning: RI is on but no J-basis has been assigned. Assigning Def2/J (nothing to worry about!)
================================================================================

----- Orbital basis set information -----
Your calculation utilizes the basis: 6-31G**
   H-He, Li-Ne : W. J. Hehre, R. Ditchfield and J.A. Pople, J. Chem. Phys. 56, 2257 (1972).
                 Note: He and Ne are unpublished basis sets taken from the Gaussian program.
                 Note: Li and B from J. D. Dill and J. A. Pople, J. Chem. Phys. 62, 2921 (1975).
   Na - Ar     : M. M. Francl, W. J. Pietro, W. J. Hehre, J. S. Binkley, M. S. Gordon, 
                 D. J. DeFrees and J. A. Pople, J. Chem. Phys. 77, 3654 (1982).
   K - Zn      : V. A. Rassolov, J. A. Pople, M. A. Ratner, and T. L. Windus, J. Chem. Phys. 109, 1223 (1998).

----- AuxJ basis set information -----
Your calculation utilizes the auxiliary basis: def2/J
   H-Rn: F. Weigend, Phys. Chem. Chem. Phys. 8, 1057 (2006).
   Fr-Lr: K. Eichkorn, F. Weigend, O. Treutler, R. Ahlrichs; Theor. Chem. Acc. 97, 119 (1997).

================================================================================
                                        WARNINGS
                       Please study these warnings very carefully!
================================================================================


================================================================================
                                       INPUT FILE
================================================================================
NAME = input.inp
|  1> # Automatically generated ORCA input
|  2> 
|  3> # Number of cores
|  4> %pal nprocs 8 end
|  5> # RAM per core
|  6> %maxcore 3840
|  7> 
|  8> ! wB97X-D3 
|  9> ! 6-31G** 
| 10> ! TightSCF 
| 11> ! Freq 
| 12> 
| 13> %geom
| 14>   Calc_Hess true
| 15> end
| 16> %Output
| 17>   JSONPropFile True
| 18> End
| 19> 
| 20> 
| 21> *xyz 0 1 
| 22> C        -2.23494600     -1.44824400      0.97690300
| 23> C        -1.07094800     -0.72540600      0.63015000
| 24> C        -0.02669200     -1.43320700      0.02757900
| 25> C        -0.09926900     -2.80246400     -0.22444300
| 26> C        -1.24558300     -3.49625200      0.13450300
| 27> C        -2.30962500     -2.82006800      0.72892800
| 28> H         0.88674100     -0.89680500     -0.21550800
| 29> H         0.73793100     -3.32012800     -0.68245600
| 30> H        -1.32365800     -4.56412700     -0.04787800
| 31> H        -3.20488100     -3.37229400      0.99636300
| 32> N        -3.30028800     -0.75640700      1.62935200
| 33> B        -0.87051000      0.81403000      0.96092400
| 34> H         1.94202100      3.87821500     -0.00484800
| 35> H         3.52011700      3.08684900     -0.18651500
| 36> H         2.02499000      2.13346700     -0.27388700
| 37> C         4.10277000      0.76091500      1.23660200
| 38> H         4.99242000      1.39511000      1.16824800
| 39> H         4.40962500     -0.21763000      1.61472700
| 40> H         3.69004200      0.62348700      0.23607300
| 41> C         3.60050900      1.35136000      3.61734600
| 42> H         3.75986900      0.31196600      3.91458500
| 43> H         4.54848300      1.88825400      3.71205600
| 44> H         2.87551500      1.79430800      4.30579600
| 45> C        -0.56853000      0.98463600      2.87601700
| 46> C        -0.69781700     -0.22387100      3.56453900
| 47> C        -1.63249200     -0.20703900      4.60713400
| 48> H        -1.74806900      1.61281700      0.80887900
| 49> H         0.17620500      1.24351800      0.51534300
| 50> C         2.54872100      2.78837100      1.74157800
| 51> C         3.07798200      1.37488200      2.17971000
| 52> O         1.18545100      2.76271500      2.21329000
| 53> O         1.88496100      0.56713700      2.15675800
| 54> B         0.81869500      1.43771700      2.25810700
| 55> C         3.26051100      3.96438600      2.39504500
| 56> H         2.83279800      4.90100900      2.02862200
| 57> H         3.15086300      3.94276600      3.48030500
| 58> H         4.32665800      3.95510500      2.14702400
| 59> C         2.51263800      2.97498300      0.22399200
| 60> H        -0.11680700     -1.09227400      3.27755500
| 61> C        -2.22153200      1.03210500      4.73611200
| 62> H        -1.87656000     -1.05677500      5.23114400
| 63> H        -2.98493100      1.31622500      5.44873800
| 64> S        -1.64065500      2.15773800      3.60861000
| 65> C        -4.12798900      0.04105900      0.73540100
| 66> H        -4.79099300     -0.58709400      0.11435400
| 67> H        -4.75157000      0.72097200      1.32554100
| 68> H        -3.50137000      0.63996600      0.07599900
| 69> C        -4.11474000     -1.54206800      2.53242400
| 70> H        -4.69543900     -0.86255600      3.16577800
| 71> H        -4.83179900     -2.21188300      2.02376600
| 72> H        -3.47565400     -2.14842600      3.17918200
| 73> *
| 74> 
| 75> 
| 76>                          ****END OF INPUT****
================================================================================

                       ****************************
                       * Single Point Calculation *
                       ****************************

---------------------------------
CARTESIAN COORDINATES (ANGSTROEM)
---------------------------------
  C     -2.234946   -1.448244    0.976903
  C     -1.070948   -0.725406    0.630150
  C     -0.026692   -1.433207    0.027579
  C     -0.099269   -2.802464   -0.224443
  C     -1.245583   -3.496252    0.134503
  C     -2.309625   -2.820068    0.728928
  H      0.886741   -0.896805   -0.215508
  H      0.737931   -3.320128   -0.682456
  H     -1.323658   -4.564127   -0.047878
  H     -3.204881   -3.372294    0.996363
  N     -3.300288   -0.756407    1.629352
  B     -0.870510    0.814030    0.960924
  H      1.942021    3.878215   -0.004848
  H      3.520117    3.086849   -0.186515
  H      2.024990    2.133467   -0.273887
  C      4.102770    0.760915    1.236602
  H      4.992420    1.395110    1.168248
  H      4.409625   -0.217630    1.614727
  H      3.690042    0.623487    0.236073
  C      3.600509    1.351360    3.617346
  H      3.759869    0.311966    3.914585
  H      4.548483    1.888254    3.712056
  H      2.875515    1.794308    4.305796
  C     -0.568530    0.984636    2.876017
  C     -0.697817   -0.223871    3.564539
  C     -1.632492   -0.207039    4.607134
  H     -1.748069    1.612817    0.808879
  H      0.176205    1.243518    0.515343
  C      2.548721    2.788371    1.741578
  C      3.077982    1.374882    2.179710
  O      1.185451    2.762715    2.213290
  O      1.884961    0.567137    2.156758
  B      0.818695    1.437717    2.258107
  C      3.260511    3.964386    2.395045
  H      2.832798    4.901009    2.028622
  H      3.150863    3.942766    3.480305
  H      4.326658    3.955105    2.147024
  C      2.512638    2.974983    0.223992
  H     -0.116807   -1.092274    3.277555
  C     -2.221532    1.032105    4.736112
  H     -1.876560   -1.056775    5.231144
  H     -2.984931    1.316225    5.448738
  S     -1.640655    2.157738    3.608610
  C     -4.127989    0.041059    0.735401
  H     -4.790993   -0.587094    0.114354
  H     -4.751570    0.720972    1.325541
  H     -3.501370    0.639966    0.075999
  C     -4.114740   -1.542068    2.532424
  H     -4.695439   -0.862556    3.165778
  H     -4.831799   -2.211883    2.023766
  H     -3.475654   -2.148426    3.179182

----------------------------
CARTESIAN COORDINATES (A.U.)
----------------------------
  NO LB      ZA    FRAG     MASS         X           Y           Z
   0 C     6.0000    0    12.011   -4.223436   -2.736785    1.846079
   1 C     6.0000    0    12.011   -2.023798   -1.370819    1.190811
   2 C     6.0000    0    12.011   -0.050441   -2.708369    0.052117
   3 C     6.0000    0    12.011   -0.187591   -5.295889   -0.424136
   4 C     6.0000    0    12.011   -2.353811   -6.606959    0.254174
   5 C     6.0000    0    12.011   -4.364559   -5.329156    1.377474
   6 H     1.0000    0     1.008    1.675698   -1.694716   -0.407251
   7 H     1.0000    0     1.008    1.394487   -6.274133   -1.289655
   8 H     1.0000    0     1.008   -2.501351   -8.624950   -0.090476
   9 H     1.0000    0     1.008   -6.056347   -6.372712    1.882853
  10 N     7.0000    0    14.007   -6.236640   -1.429402    3.079029
  11 B     5.0000    0    10.810   -1.645025    1.538294    1.815883
  12 H     1.0000    0     1.008    3.669888    7.328764   -0.009161
  13 H     1.0000    0     1.008    6.652057    5.833299   -0.352462
  14 H     1.0000    0     1.008    3.826677    4.031668   -0.517571
  15 C     6.0000    0    12.011    7.753112    1.437921    2.336839
  16 H     1.0000    0     1.008    9.434307    2.636376    2.207669
  17 H     1.0000    0     1.008    8.332984   -0.411261    3.051392
  18 H     1.0000    0     1.008    6.973169    1.178220    0.446113
  19 C     6.0000    0    12.011    6.803976    2.553700    6.835793
  20 H     1.0000    0     1.008    7.105123    0.589530    7.397494
  21 H     1.0000    0     1.008    8.595387    3.568283    7.014769
  22 H     1.0000    0     1.008    5.433936    3.390751    8.136775
  23 C     6.0000    0    12.011   -1.074366    1.860692    5.434884
  24 C     6.0000    0    12.011   -1.318683   -0.423055    6.736003
  25 C     6.0000    0    12.011   -3.084963   -0.391247    8.706222
  26 H     1.0000    0     1.008   -3.303372    3.047782    1.528560
  27 H     1.0000    0     1.008    0.332979    2.349908    0.973857
  28 C     6.0000    0    12.011    4.816385    5.269258    3.291105
  29 C     6.0000    0    12.011    5.816543    2.598150    4.119055
  30 O     8.0000    0    15.999    2.240178    5.220775    4.182512
  31 O     8.0000    0    15.999    3.562060    1.071734    4.075682
  32 B     5.0000    0    10.810    1.547109    2.716891    4.267204
  33 C     6.0000    0    12.011    6.161473    7.491604    4.525979
  34 H     1.0000    0     1.008    5.353212    9.261565    3.833540
  35 H     1.0000    0     1.008    5.954268    7.450748    6.576823
  36 H     1.0000    0     1.008    8.176199    7.474065    4.057287
  37 C     6.0000    0    12.011    4.748198    5.621903    0.423284
  38 H     1.0000    0     1.008   -0.220733   -2.064099    6.193681
  39 C     6.0000    0    12.011   -4.198087    1.950396    8.949955
  40 H     1.0000    0     1.008   -3.546184   -1.997015    9.885430
  41 H     1.0000    0     1.008   -5.640702    2.487305   10.296623
  42 S    16.0000    0    32.060   -3.100389    4.077534    6.819285
  43 C     6.0000    0    12.011   -7.800769    0.077590    1.389706
  44 H     1.0000    0     1.008   -9.053665   -1.109447    0.216098
  45 H     1.0000    0     1.008   -8.979166    1.362440    2.504909
  46 H     1.0000    0     1.008   -6.616630    1.209360    0.143617
  47 C     6.0000    0    12.011   -7.775732   -2.914086    4.785588
  48 H     1.0000    0     1.008   -8.873094   -1.629995    5.982453
  49 H     1.0000    0     1.008   -9.130777   -4.179853    3.824363
  50 H     1.0000    0     1.008   -6.568034   -4.059937    6.007783

--------------------------------
INTERNAL COORDINATES (ANGSTROEM)
--------------------------------
 C      0   0   0     0.000000000000     0.00000000     0.00000000
 C      1   0   0     1.413373185417     0.00000000     0.00000000
 C      2   1   0     1.398050306383   117.51405108     0.00000000
 C      3   2   1     1.394147496308   122.42994330   359.51973884
 C      4   3   2     1.387162501820   119.17392283   359.90523427
 C      5   4   3     1.393826122673   119.90535353     0.53072304
 H      3   2   1     1.086820243031   118.31394751   181.92352397
 H      4   3   2     1.085659138526   120.29323017   180.81243112
 H      5   4   3     1.086147112693   120.50985827   180.26175603
 H      6   5   4     1.085337892012   119.20577375   179.40793775
 N      1   2   3     1.428034211472   118.60139317   178.17955438
 B      2   1   3     1.587277552609   123.29049973   183.36233352
 H     12   2   1     4.269926919301   137.05716850   188.53467621
 H     13  12   2     1.774725339330   106.78999525   327.97571582
 H     13  12   2     1.767317578135    49.97652159   349.22070393
 C     14  13  12     2.788317680332   120.36653917   330.99809860
 H     16  14  13     1.094692966014    69.79914697   217.16496042
 H     16  14  13     1.093018217449   169.12381425   135.93625601
 H     16  14  13     1.091003729145    63.76621858    92.74893392
 C     16  14  13     2.503763847427   104.28073946   307.20285675
 H     20  16  14     1.092742659530    90.29118815   172.82492302
 H     20  16  14     1.093562918177    91.38870500   281.32055250
 H     20  16  14     1.093518464974   145.80826692    48.74020226
 C     12   2   1     1.946247550104   108.03904859    72.51804602
 C     24  12   2     1.396877532893   113.25424252   355.02051838
 C     25  24  12     1.400323179082   114.73121023   236.14130792
 H     12   2   1     1.196364556427   121.90028871   317.29648374
 H     12   2   1     1.215983001908   112.01777066   183.25644317
 C     13  12   2     2.146124089565    68.76030902   271.98923049
 C     16  14  13     1.522037654494    80.73891772   333.28276927
 O     29  13  12     1.442801280212    90.45659073   319.26066070
 O     30  16  14     1.440929521444   108.75148918   111.21579991
 B     31  29  13     1.375550154312   106.24281071   117.14825089
 C     29  13  12     1.522062877944    95.11805848   210.76521726
 H     34  29  13     1.092916680002   109.58449469    25.27437645
 H     34  29  13     1.090999255684   111.39283136   144.88348675
 H     34  29  13     1.094655187267   110.58785131   266.07074186
 C     13  12   2     1.092611345407    72.74584808   316.89760858
 H     25  24  12     1.083538742623   120.87698102    55.17742122
 C     26  25  24     1.378071586972   111.45647716   359.31161166
 H     26  25  24     1.082131664087   124.78110048   178.67776310
 H     40  26  25     1.082283707480   126.81097905   179.04027505
 S     40  26  25     1.695797305052   112.84367187   359.79412159
 C     11   1   2     1.456087001851   114.13577504    78.60343622
 H     44  11   1     1.104468139710   112.02232830    73.66500253
 H     44  11   1     1.095171297437   109.44206888   193.81718828
 H     44  11   1     1.089106038645   110.23243936   312.71420321
 C     11   1   2     1.447803268545   116.21575533   209.96488194
 H     48  11   1     1.095483991695   108.79701033   164.34166551
 H     48  11   1     1.105241468942   114.00212391   284.09319046
 H     48  11   1     1.092884646303   109.95313706    46.03603858

---------------------------
INTERNAL COORDINATES (A.U.)
---------------------------
 C      0   0   0     0.000000000000     0.00000000     0.00000000
 C      1   0   0     2.670888245467     0.00000000     0.00000000
 C      2   1   0     2.641932200509   117.51405108     0.00000000
 C      3   2   1     2.634556958314   122.42994330   359.51973884
 C      4   3   2     2.621357231685   119.17392283   359.90523427
 C      5   4   3     2.633949650157   119.90535353     0.53072304
 H      3   2   1     2.053792616130   118.31394751   181.92352397
 H      4   3   2     2.051598446603   120.29323017   180.81243112
 H      5   4   3     2.052520584139   120.50985827   180.26175603
 H      6   5   4     2.050991378670   119.20577375   179.40793775
 N      1   2   3     2.698593569552   118.60139317   178.17955438
 B      2   1   3     2.999519872952   123.29049973   183.36233352
 H     12   2   1     8.068992489337   137.05716850   188.53467621
 H     13  12   2     3.353744854265   106.78999525   327.97571582
 H     13  12   2     3.339746214341    49.97652159   349.22070393
 C     14  13  12     5.269156790199   120.36653917   330.99809860
 H     16  14  13     2.068669906497    69.79914697   217.16496042
 H     16  14  13     2.065505090365   169.12381425   135.93625601
 H     16  14  13     2.061698259171    63.76621858    92.74893392
 C     16  14  13     4.731427975650   104.28073946   307.20285675
 H     20  16  14     2.064984361365    90.29118815   172.82492302
 H     20  16  14     2.066534425566    91.38870500   281.32055250
 H     20  16  14     2.066450421188   145.80826692    48.74020226
 C     12   2   1     3.677874858511   108.03904859    72.51804602
 C     24  12   2     2.639715979796   113.25424252   355.02051838
 C     25  24  12     2.646227307447   114.73121023   236.14130792
 H     12   2   1     2.260801367977   121.90028871   317.29648374
 H     12   2   1     2.297874857110   112.01777066   183.25644317
 C     13  12   2     4.055586778689    68.76030902   271.98923049
 C     16  14  13     2.876234332509    80.73891772   333.28276927
 O     29  13  12     2.726499285271    90.45659073   319.26066070
 O     30  16  14     2.722962173812   108.75148918   111.21579991
 B     31  29  13     2.599413075124   106.24281071   117.14825089
 C     29  13  12     2.876281997921    95.11805848   210.76521726
 H     34  29  13     2.065313212399   109.58449469    25.27437645
 H     34  29  13     2.061689805556   111.39283136   144.88348675
 H     34  29  13     2.068598515011   110.58785131   266.07074186
 C     13  12   2     2.064736213635    72.74584808   316.89760858
 H     25  24  12     2.047591479051   120.87698102    55.17742122
 C     26  25  24     2.604177892316   111.45647716   359.31161166
 H     26  25  24     2.044932485969   124.78110048   178.67776310
 H     40  26  25     2.045219806342   126.81097905   179.04027505
 S     40  26  25     3.204592485190   112.84367187   359.79412159
 C     11   1   2     2.751605660660   114.13577504    78.60343622
 H     44  11   1     2.087142307693   112.02232830    73.66500253
 H     44  11   1     2.069573821887   109.44206888   193.81718828
 H     44  11   1     2.058112143840   110.23243936   312.71420321
 C     11   1   2     2.735951673346   116.21575533   209.96488194
 H     48  11   1     2.070164728399   108.79701033   164.34166551
 H     48  11   1     2.088603688154   114.00212391   284.09319046
 H     48  11   1     2.065252677479   109.95313706    46.03603858

---------------------
BASIS SET INFORMATION
---------------------
There are 6 groups of distinct atoms

 Group   1 Type C   : 10s4p1d contracted to 3s2p1d pattern {631/31/1}
 Group   2 Type H   : 4s1p contracted to 2s1p pattern {31/1}
 Group   3 Type N   : 10s4p1d contracted to 3s2p1d pattern {631/31/1}
 Group   4 Type B   : 10s4p1d contracted to 3s2p1d pattern {631/31/1}
 Group   5 Type O   : 10s4p1d contracted to 3s2p1d pattern {631/31/1}
 Group   6 Type S   : 16s10p1d contracted to 4s3p1d pattern {6631/631/1}

Atom   0C    basis set group =>   1
Atom   1C    basis set group =>   1
Atom   2C    basis set group =>   1
Atom   3C    basis set group =>   1
Atom   4C    basis set group =>   1
Atom   5C    basis set group =>   1
Atom   6H    basis set group =>   2
Atom   7H    basis set group =>   2
Atom   8H    basis set group =>   2
Atom   9H    basis set group =>   2
Atom  10N    basis set group =>   3
Atom  11B    basis set group =>   4
Atom  12H    basis set group =>   2
Atom  13H    basis set group =>   2
Atom  14H    basis set group =>   2
Atom  15C    basis set group =>   1
Atom  16H    basis set group =>   2
Atom  17H    basis set group =>   2
Atom  18H    basis set group =>   2
Atom  19C    basis set group =>   1
Atom  20H    basis set group =>   2
Atom  21H    basis set group =>   2
Atom  22H    basis set group =>   2
Atom  23C    basis set group =>   1
Atom  24C    basis set group =>   1
Atom  25C    basis set group =>   1
Atom  26H    basis set group =>   2
Atom  27H    basis set group =>   2
Atom  28C    basis set group =>   1
Atom  29C    basis set group =>   1
Atom  30O    basis set group =>   5
Atom  31O    basis set group =>   5
Atom  32B    basis set group =>   4
Atom  33C    basis set group =>   1
Atom  34H    basis set group =>   2
Atom  35H    basis set group =>   2
Atom  36H    basis set group =>   2
Atom  37C    basis set group =>   1
Atom  38H    basis set group =>   2
Atom  39C    basis set group =>   1
Atom  40H    basis set group =>   2
Atom  41H    basis set group =>   2
Atom  42S    basis set group =>   6
Atom  43C    basis set group =>   1
Atom  44H    basis set group =>   2
Atom  45H    basis set group =>   2
Atom  46H    basis set group =>   2
Atom  47C    basis set group =>   1
Atom  48H    basis set group =>   2
Atom  49H    basis set group =>   2
Atom  50H    basis set group =>   2
---------------------------------
AUXILIARY/J BASIS SET INFORMATION
---------------------------------
There are 6 groups of distinct atoms

 Group   1 Type C   : 12s5p4d2f1g contracted to 6s4p3d1f1g pattern {711111/2111/211/2/1}
 Group   2 Type H   : 5s2p1d contracted to 3s1p1d pattern {311/2/1}
 Group   3 Type N   : 12s5p4d2f1g contracted to 6s4p3d1f1g pattern {711111/2111/211/2/1}
 Group   4 Type B   : 12s5p4d2f1g contracted to 6s4p3d1f1g pattern {711111/2111/211/2/1}
 Group   5 Type O   : 12s5p4d2f1g contracted to 6s4p3d1f1g pattern {711111/2111/211/2/1}
 Group   6 Type S   : 14s5p5d2f1g contracted to 8s4p3d1f1g pattern {71111111/2111/311/2/1}

Atom   0C    basis set group =>   1
Atom   1C    basis set group =>   1
Atom   2C    basis set group =>   1
Atom   3C    basis set group =>   1
Atom   4C    basis set group =>   1
Atom   5C    basis set group =>   1
Atom   6H    basis set group =>   2
Atom   7H    basis set group =>   2
Atom   8H    basis set group =>   2
Atom   9H    basis set group =>   2
Atom  10N    basis set group =>   3
Atom  11B    basis set group =>   4
Atom  12H    basis set group =>   2
Atom  13H    basis set group =>   2
Atom  14H    basis set group =>   2
Atom  15C    basis set group =>   1
Atom  16H    basis set group =>   2
Atom  17H    basis set group =>   2
Atom  18H    basis set group =>   2
Atom  19C    basis set group =>   1
Atom  20H    basis set group =>   2
Atom  21H    basis set group =>   2
Atom  22H    basis set group =>   2
Atom  23C    basis set group =>   1
Atom  24C    basis set group =>   1
Atom  25C    basis set group =>   1
Atom  26H    basis set group =>   2
Atom  27H    basis set group =>   2
Atom  28C    basis set group =>   1
Atom  29C    basis set group =>   1
Atom  30O    basis set group =>   5
Atom  31O    basis set group =>   5
Atom  32B    basis set group =>   4
Atom  33C    basis set group =>   1
Atom  34H    basis set group =>   2
Atom  35H    basis set group =>   2
Atom  36H    basis set group =>   2
Atom  37C    basis set group =>   1
Atom  38H    basis set group =>   2
Atom  39C    basis set group =>   1
Atom  40H    basis set group =>   2
Atom  41H    basis set group =>   2
Atom  42S    basis set group =>   6
Atom  43C    basis set group =>   1
Atom  44H    basis set group =>   2
Atom  45H    basis set group =>   2
Atom  46H    basis set group =>   2
Atom  47C    basis set group =>   1
Atom  48H    basis set group =>   2
Atom  49H    basis set group =>   2
Atom  50H    basis set group =>   2


           ************************************************************
           *        Program running with 8 parallel MPI-processes     *
           *              working on a common directory               *
           ************************************************************
------------------------------------------------------------------------------
                             ORCA STARTUP CALCULATIONS
                           -- RI-GTO INTEGRALS CHOSEN --
------------------------------------------------------------------------------
------------------------------------------------------------------------------
                   ___                                                        
                  /   \      - P O W E R E D   B Y -                         
                 /     \                                                     
                 |  |  |   _    _      __       _____    __    __             
                 |  |  |  | |  | |    /  \     |  _  \  |  |  /  |          
                  \  \/   | |  | |   /    \    | | | |  |  | /  /          
                 / \  \   | |__| |  /  /\  \   | |_| |  |  |/  /          
                |  |  |   |  __  | /  /__\  \  |    /   |      \           
                |  |  |   | |  | | |   __   |  |    \   |  |\   \          
                \     /   | |  | | |  |  |  |  | |\  \  |  | \   \       
                 \___/    |_|  |_| |__|  |__|  |_| \__\ |__|  \__/        
                                                                              
                      - O R C A' S   B I G   F R I E N D -                    
                                      &                                       
                       - I N T E G R A L  F E E D E R -                       
                                                                              
 v1 FN, 2020, v2 2021, v3 2022-2024                                           
------------------------------------------------------------------------------


----------------------
SHARK INTEGRAL PACKAGE
----------------------

Number of atoms                             ...     51
Number of basis functions                   ...    475
Number of shells                            ...    227
Maximum angular momentum                    ...      2
Integral batch strategy                     ... SHARK/LIBINT Hybrid
RI-J (if used) integral strategy            ... SPLIT-RIJ (Revised 2003 algorithm where possible)
Printlevel                                  ...      1
Contraction scheme used                     ... SEGMENTED contraction
Prescreening option                         ... SCHWARTZ
   Thresh                                   ... 2.500e-11
   Tcut                                     ... 2.500e-12
   Tpresel                                  ... 2.500e-12 
Coulomb Range Separation                    ... NOT USED
Exchange Range Separation                   ... Long Range
   Mu parameter                             ... 2.500e-01
   Scaling (regular/separated)              ... 1.957e-01 8.043e-01
Robust (split-)RI terms used:
  metric    (central integrals)             ... YES
  density   (r.h.s.  integrals)             ... YES
  potential (l.h.s.  integrals)             ... YES
Multipole approximations                    ... NOT USED
Finite Nucleus Model                        ... NOT USED
CABS basis                                  ... NOT available
Auxiliary Coulomb fitting basis             ... AVAILABLE
   # of basis functions in Aux-J            ...   1475
   # of shells in Aux-J                     ...    497
   Maximum angular momentum in Aux-J        ...      4
Auxiliary J/K fitting basis                 ... NOT available
Auxiliary Correlation fitting basis         ... NOT available
Auxiliary 'external' fitting basis          ... NOT available

Checking pre-screening integrals            ... done (  0.0 sec) Dimension = 227
   => SHARK Basis and OBASIS are compatible. Storing Pre-screening
Shell pair information
Shell pair cut-off parameter TPreSel        ...   2.5e-12
Total number of shell pairs                 ...     25878
Shell pairs after pre-screening             ...     17762
Total number of primitive shell pairs       ...    129393
Primitive shell pairs kept                  ...     50306
          la=0 lb=0:   5609 shell pairs
          la=1 lb=0:   6682 shell pairs
          la=1 lb=1:   2050 shell pairs
          la=2 lb=0:   2010 shell pairs
          la=2 lb=1:   1220 shell pairs
          la=2 lb=2:    191 shell pairs

Checking whether 4 symmetric matrices of dimension 475 fit in memory
:Max Core in MB      =   3840.00
 MB in use           =     26.62
 MB left             =   3813.38
 MB needed           =      3.45
 Data fit in memory  = YES
Calculating RI/J V-Matrix + Cholesky decomp.... done (  0.1 sec)
Calculating Nuclear repulsion               ... done (  0.0 sec) ENN=   2331.589104871985 Eh

Diagonalization of the overlap matrix:
Smallest eigenvalue                        ... 4.249e-04
Time for diagonalization                   ...    0.054 sec
Threshold for overlap eigenvalues          ... 1.000e-07
Number of eigenvalues below threshold      ... 0
Time for construction of square roots      ...    0.025 sec
Total time needed                          ...    0.081 sec

-------------------
DFT GRID GENERATION
-------------------

General Integration Accuracy     IntAcc      ... 4.388
Radial Grid Type                 RadialGrid  ... OptM3 with GC (2021)
Angular Grid (max. ang.)         AngularGrid ... 4 (Lebedev-302)
Angular grid pruning method      GridPruning ... 4 (adaptive)
Weight generation scheme         WeightScheme... mBecke (2022)
Basis function cutoff            BFCut       ... 1.0000e-11
Integration weight cutoff        WCut        ... 1.0000e-14
Partially contracted basis set               ... off
Rotationally invariant grid construction     ... off
Angular grids for H and He will be reduced by one unit

Total number of grid points                  ...   228559
Total number of batches                      ...     3597
Average number of points per batch           ...       63
Average number of grid points per atom       ...     4482

--------------------
COSX GRID GENERATION
--------------------

GRIDX 1
-------
General Integration Accuracy     IntAcc      ... 3.816
Radial Grid Type                 RadialGrid  ... OptM3 with GC (2021)
Angular Grid (max. ang.)         AngularGrid ... 1 (Lebedev-50)
Angular grid pruning method      GridPruning ... 4 (adaptive)
Weight generation scheme         WeightScheme... mBecke (2022)
Basis function cutoff            BFCut       ... 1.0000e-11
Integration weight cutoff        WCut        ... 1.0000e-14
Partially contracted basis set               ... on
Rotationally invariant grid construction     ... off
Angular grids for H and He will be reduced by one unit

Total number of grid points                  ...    30032
Total number of batches                      ...      261
Average number of points per batch           ...      115
Average number of grid points per atom       ...      589
UseSFitting                                  ... on

GRIDX 2
-------
General Integration Accuracy     IntAcc      ... 4.020
Radial Grid Type                 RadialGrid  ... OptM3 with GC (2021)
Angular Grid (max. ang.)         AngularGrid ... 2 (Lebedev-110)
Angular grid pruning method      GridPruning ... 4 (adaptive)
Weight generation scheme         WeightScheme... mBecke (2022)
Basis function cutoff            BFCut       ... 1.0000e-11
Integration weight cutoff        WCut        ... 1.0000e-14
Partially contracted basis set               ... on
Rotationally invariant grid construction     ... off
Angular grids for H and He will be reduced by one unit

Total number of grid points                  ...    60989
Total number of batches                      ...      503
Average number of points per batch           ...      121
Average number of grid points per atom       ...     1196
UseSFitting                                  ... on

GRIDX 3
-------
General Integration Accuracy     IntAcc      ... 4.338
Radial Grid Type                 RadialGrid  ... OptM3 with GC (2021)
Angular Grid (max. ang.)         AngularGrid ... 3 (Lebedev-194)
Angular grid pruning method      GridPruning ... 4 (adaptive)
Weight generation scheme         WeightScheme... mBecke (2022)
Basis function cutoff            BFCut       ... 1.0000e-11
Integration weight cutoff        WCut        ... 1.0000e-14
Partially contracted basis set               ... on
Rotationally invariant grid construction     ... off
Angular grids for H and He will be reduced by one unit

Total number of grid points                  ...   133106
Total number of batches                      ...     1064
Average number of points per batch           ...      125
Average number of grid points per atom       ...     2610
UseSFitting                                  ... on
Grids setup in   4.4 sec
Initializing property integral containers    ... done (  0.0 sec)

SHARK setup successfully completed in   5.0 seconds

Maximum memory used throughout the entire STARTUP-calculation: 69.6 MB


           ************************************************************
           *        Program running with 8 parallel MPI-processes     *
           *              working on a common directory               *
           ************************************************************
-------------------------------------------------------------------------------
                                 ORCA GUESS
                   Start orbitals & Density for SCF / CASSCF
-------------------------------------------------------------------------------

------------
SCF SETTINGS
------------
Hamiltonian:
 Density Functional     Method          .... DFT(GTOs)
 Exchange Functional    Exchange        .... WB97X-D3
 Correlation Functional Correlation     .... WB97X-D3
 Gradients option       PostSCFGGA      .... off
 Hybrid DFT is turned on
   Fraction HF Exchange ScalHFX         ....  0.195728
   Scaling of DF-GGA-X  ScalDFX         ....  0.000000
   Scaling of DF-GGA-C  ScalDFC         ....  1.000000
   Scaling of DF-LDA-C  ScalLDAC        ....  1.000000
   Perturbative correction              ....  0.000000
 Long-range corrected/Screened/Range-Separated Hybrid DFT is turned on
   Amount of maximum screened exact exchange              ....  0.804272
   Range separation parameter mu (erf(mu*r12)/r12)        ....  0.250000
 RI-approximation to the Coulomb term is turned on
   Number of AuxJ basis functions       .... 1475
   RIJ-COSX (HFX calculated with COS-X)).... on


General Settings:
 Integral files         IntName         .... input
 Hartree-Fock type      HFTyp           .... RHF
 Total Charge           Charge          ....    0
 Multiplicity           Mult            ....    1
 Number of Electrons    NEL             ....  184
 Basis Dimension        Dim             ....  475
 Nuclear Repulsion      ENuc            ....   2331.5891048720 Eh

Convergence Acceleration:
 AO-DIIS                CNVDIIS         .... on
   Start iteration      DIISMaxIt       ....    12
   Startup error        DIISStart       ....  0.200000
   # of expansion vecs  DIISMaxEq       ....     5
   Bias factor          DIISBfac        ....   1.050
   Max. coefficient     DIISMaxC        ....  10.000
 MO-DIIS                CNVKDIIS        .... off
 Trust-Rad. Augm. Hess. CNVTRAH         .... auto
   Auto Start mean grad. ratio tolernc. ....  1.125000
   Auto Start start iteration           ....    50
   Auto Start num. interpolation iter.  ....    10
   Max. Number of Micro iterations      ....    24
   Max. Number of Macro iterations      .... Maxiter - #DIIS iter
   Number of Davidson start vectors     ....     2
   Converg. threshold    (grad. norm)   ....   1.000e-05
   Grad. Scal. Fac. for Micro threshold ....   0.100
   Minimum threshold for Micro iter.    ....   1.000e-02
   NR start threshold (gradient norm)   ....   1.000e-04
   Initial trust radius                 ....   0.400
   Minimum AH scaling param. (alpha)    ....   1.000
   Maximum AH scaling param. (alpha)    .... 1000.000
   Quad. conv. algorithm                .... NR
   White noise on init. David. guess    .... on
   Maximum white noise                  ....   0.010
   Pseudo random numbers                .... off
   Inactive MOs                         .... canonical
   Orbital update algorithm             .... Taylor
   Preconditioner                       .... Diag
   Full preconditioner red. dimension   ....   250
 SOSCF                 CNVSOSCF           .... on
   Start iteration     SOSCFMaxIt         ....   150
   Startup grad/error  SOSCFStart         ....  0.003300
   Hessian update      SOSCFHessUp        .... L-BFGS
   Autom. constraints  SOSCFAutoConstrain .... off
 Level Shifting         CNVShift        .... on
   Level shift para.    LevelShift      ....    0.2500
   Turn off err/grad.   ShiftErr        ....    0.0010
 Zerner damping         CNVZerner       .... off
 Static damping         CNVDamp         .... on
   Fraction old density DampFac         ....    0.7000
   Max. Damping (<1)    DampMax         ....    0.9800
   Min. Damping (>=0)   DampMin         ....    0.0000
   Turn off err/grad.   DampErr         ....    0.1000

SCF Procedure:
 Maximum # iterations   MaxIter         ....   125
 SCF integral mode      SCFMode         .... Direct
   Integral package                     .... SHARK and LIBINT hybrid scheme
 Reset frequency        DirectResetFreq ....    20
 Integral Threshold     Thresh          ....  2.500e-11 Eh
 Primitive CutOff       TCut            ....  2.500e-12 Eh

Convergence Tolerance:
 Convergence Check Mode ConvCheckMode   .... Total+1el-Energy
 Convergence forced     ConvForced      .... 0
 Energy Change          TolE            ....  1.000e-08 Eh
 1-El. energy change                    ....  1.000e-05 Eh
 Orbital Gradient       TolG            ....  1.000e-05
 Orbital Rotation angle TolX            ....  1.000e-05
 DIIS Error             TolErr          ....  5.000e-07

------------------------------
INITIAL GUESS: MODEL POTENTIAL
------------------------------
Loading Hartree-Fock densities                     ... done
Calculating cut-offs                               ... done
Initializing the effective Hamiltonian             ... done
Setting up the integral package (SHARK)            ... done
Starting the Coulomb interaction                   ... done (   0.6 sec)
Making the grid                                    ... done (   0.6 sec)
Mapping shells                                     ... done
Starting the XC term evaluation                    ... done (   0.2 sec)
  promolecular density results
     # of electrons  =    183.987187321
     EX              =   -155.491649255
     EC              =     -6.229259720
     EX+EC           =   -161.720908975
Transforming the Hamiltonian                       ... done (   0.0 sec)
Diagonalizing the Hamiltonian                      ... done (   0.1 sec)
Back transforming the eigenvectors                 ... done (   0.0 sec)
Now organizing SCF variables                       ... done
                      ------------------
                      INITIAL GUESS DONE (   1.5 sec)
                      ------------------
             **** ENERGY FILE WAS UPDATED (input.en.tmp) ****
Finished Guess after   1.8 sec
Maximum memory used throughout the entire GUESS-calculation: 33.4 MB


           ************************************************************
           *        Program running with 8 parallel MPI-processes     *
           *              working on a common directory               *
           ************************************************************

-------------------------------------------------------------------------------------------
                                      ORCA LEAN-SCF
                              memory conserving SCF solver
-------------------------------------------------------------------------------------------

----------------------------------------D-I-I-S--------------------------------------------
Iteration    Energy (Eh)           Delta-E    RMSDP     MaxDP     DIISErr   Damp  Time(sec)
-------------------------------------------------------------------------------------------
               ***  Starting incremental Fock matrix formation  ***
    1    -1354.4222720759507865     0.00e+00  4.25e-03  6.85e-02  1.95e-01  0.700  18.7
    2    -1354.6836342286319450    -2.61e-01  3.22e-03  4.85e-02  1.00e-01  0.700   8.6
                               ***Turning on AO-DIIS***
    3    -1354.8176773449072243    -1.34e-01  1.59e-03  2.05e-02  5.03e-02  0.700   8.5
    4    -1354.8973682500409268    -7.97e-02  3.44e-03  6.26e-02  3.08e-02  0.000   8.0
    5    -1355.0680312647709798    -1.71e-01  3.92e-04  4.90e-03  4.45e-03  0.000   8.5
                              *** Initializing SOSCF ***
---------------------------------------S-O-S-C-F--------------------------------------
Iteration    Energy (Eh)           Delta-E    RMSDP     MaxDP     MaxGrad    Time(sec)
--------------------------------------------------------------------------------------
    6    -1355.0687185560759644    -6.87e-04  2.23e-04  4.62e-03  2.68e-03     7.3
               *** Restarting incremental Fock matrix formation ***
    7    -1355.0689928225001495    -2.74e-04  1.83e-04  3.40e-03  2.81e-03    18.5
    8    -1355.0691210451477673    -1.28e-04  2.59e-04  4.45e-03  1.03e-03    12.2
    9    -1355.0691539369881866    -3.29e-05  8.10e-05  1.22e-03  5.77e-04    12.5
   10    -1355.0691703661113934    -1.64e-05  1.70e-05  3.57e-04  1.09e-04    11.3
   11    -1355.0691708443573589    -4.78e-07  6.15e-06  1.02e-04  3.07e-05     9.3
   12    -1355.0691709927014017    -1.48e-07  2.82e-06  4.72e-05  2.04e-05     7.7
   13    -1355.0691709931884361    -4.87e-10  1.06e-06  1.29e-05  4.19e-06     6.8
                 **** Energy Check signals convergence ****

               *****************************************************
               *                     SUCCESS                       *
               *           SCF CONVERGED AFTER  13 CYCLES          *
               *****************************************************

Recomputing exchange energy using gridx3       ... done (   34.453 sec)
Old exchange energy                            :    -50.836020011 Eh
New exchange energy                            :    -50.836079210 Eh
Exchange energy change after final integration :     -0.000059198 Eh
Total energy after final integration           :  -1355.069230204 Eh
             **** ENERGY FILE WAS UPDATED (input.en.tmp) ****

----------------
TOTAL SCF ENERGY
----------------

Total Energy       :      -1355.06923020380577 Eh          -36873.30836 eV

Components:
Nuclear Repulsion  :       2331.58910487198455 Eh           63445.76506 eV
Electronic Energy  :      -3686.65827587759486 Eh         -100319.07181 eV
One Electron Energy:      -6486.00498954980412 Eh         -176493.16850 eV
Two Electron Energy:       2799.34671367220926 Eh           76174.09670 eV

Virial components:
Potential Energy   :      -2702.85258883962479 Eh          -73548.35807 eV
Kinetic Energy     :       1347.78335863581901 Eh           36675.04971 eV
Virial Ratio       :          2.00540581802061

DFT components:
N(Alpha)           :       91.999808382740 electrons
N(Beta)            :       91.999808382740 electrons
N(Total)           :      183.999616765480 electrons
E(XC)              :     -114.932744126419 Eh       

---------------
SCF CONVERGENCE
---------------

  Last Energy change         ...    4.8703e-10  Tolerance :   1.0000e-08
  Last MAX-Density change    ...    1.2927e-05  Tolerance :   1.0000e-07
  Last RMS-Density change    ...    1.0611e-06  Tolerance :   5.0000e-09
  Last DIIS Error            ...    2.6784e-03  Tolerance :   5.0000e-07
  Last Orbital Gradient      ...    4.1887e-06  Tolerance :   1.0000e-05
  Last Orbital Rotation      ...    1.0976e-05  Tolerance :   1.0000e-05


----------------
ORBITAL ENERGIES
----------------

  NO   OCC          E(Eh)            E(eV) 
   0   2.0000     -88.994831     -2421.6725 
   1   2.0000     -19.241742      -523.5944 
   2   2.0000     -19.239651      -523.5375 
   3   2.0000     -14.421340      -392.4246 
   4   2.0000     -10.346265      -281.5362 
   5   2.0000     -10.345725      -281.5215 
   6   2.0000     -10.345209      -281.5074 
   7   2.0000     -10.321845      -280.8717 
   8   2.0000     -10.309195      -280.5275 
   9   2.0000     -10.306591      -280.4566 
  10   2.0000     -10.299780      -280.2713 
  11   2.0000     -10.296935      -280.1938 
  12   2.0000     -10.289125      -279.9813 
  13   2.0000     -10.275659      -279.6149 
  14   2.0000     -10.275503      -279.6106 
  15   2.0000     -10.273791      -279.5641 
  16   2.0000     -10.272426      -279.5269 
  17   2.0000     -10.270559      -279.4761 
  18   2.0000     -10.267059      -279.3809 
  19   2.0000     -10.265465      -279.3375 
  20   2.0000     -10.264991      -279.3246 
  21   2.0000     -10.247136      -278.8388 
  22   2.0000      -8.090614      -220.1568 
  23   2.0000      -6.892771      -187.5618 
  24   2.0000      -6.809026      -185.2830 
  25   2.0000      -6.044512      -164.4795 
  26   2.0000      -6.039869      -164.3532 
  27   2.0000      -6.038138      -164.3061 
  28   2.0000      -1.173090       -31.9214 
  29   2.0000      -1.101914       -29.9846 
  30   2.0000      -1.037481       -28.2313 
  31   2.0000      -1.015443       -27.6316 
  32   2.0000      -0.941241       -25.6125 
  33   2.0000      -0.921273       -25.0691 
  34   2.0000      -0.868004       -23.6196 
  35   2.0000      -0.862542       -23.4710 
  36   2.0000      -0.859157       -23.3788 
  37   2.0000      -0.837598       -22.7922 
  38   2.0000      -0.836577       -22.7644 
  39   2.0000      -0.819245       -22.2928 
  40   2.0000      -0.808810       -22.0089 
  41   2.0000      -0.789837       -21.4926 
  42   2.0000      -0.742821       -20.2132 
  43   2.0000      -0.732765       -19.9396 
  44   2.0000      -0.701040       -19.0763 
  45   2.0000      -0.685603       -18.6562 
  46   2.0000      -0.679661       -18.4945 
  47   2.0000      -0.662949       -18.0398 
  48   2.0000      -0.651899       -17.7391 
  49   2.0000      -0.642371       -17.4798 
  50   2.0000      -0.626018       -17.0348 
  51   2.0000      -0.610983       -16.6257 
  52   2.0000      -0.583676       -15.8826 
  53   2.0000      -0.571225       -15.5438 
  54   2.0000      -0.561481       -15.2787 
  55   2.0000      -0.556739       -15.1497 
  56   2.0000      -0.550402       -14.9772 
  57   2.0000      -0.545593       -14.8463 
  58   2.0000      -0.540937       -14.7197 
  59   2.0000      -0.536293       -14.5933 
  60   2.0000      -0.520897       -14.1743 
  61   2.0000      -0.514459       -13.9992 
  62   2.0000      -0.508001       -13.8234 
  63   2.0000      -0.504883       -13.7386 
  64   2.0000      -0.498872       -13.5750 
  65   2.0000      -0.496785       -13.5182 
  66   2.0000      -0.491100       -13.3635 
  67   2.0000      -0.490495       -13.3470 
  68   2.0000      -0.483806       -13.1650 
  69   2.0000      -0.476910       -12.9774 
  70   2.0000      -0.468575       -12.7506 
  71   2.0000      -0.466524       -12.6948 
  72   2.0000      -0.463381       -12.6092 
  73   2.0000      -0.460800       -12.5390 
  74   2.0000      -0.456320       -12.4171 
  75   2.0000      -0.455683       -12.3998 
  76   2.0000      -0.447650       -12.1812 
  77   2.0000      -0.442678       -12.0459 
  78   2.0000      -0.442321       -12.0362 
  79   2.0000      -0.436944       -11.8898 
  80   2.0000      -0.429418       -11.6851 
  81   2.0000      -0.421603       -11.4724 
  82   2.0000      -0.413259       -11.2454 
  83   2.0000      -0.393981       -10.7208 
  84   2.0000      -0.383828       -10.4445 
  85   2.0000      -0.370729       -10.0881 
  86   2.0000      -0.357654        -9.7323 
  87   2.0000      -0.351072        -9.5532 
  88   2.0000      -0.339884        -9.2487 
  89   2.0000      -0.327832        -8.9208 
  90   2.0000      -0.305401        -8.3104 
  91   2.0000      -0.271940        -7.3999 
  92   0.0000      -0.000226        -0.0061 
  93   0.0000       0.087711         2.3867 
  94   0.0000       0.099292         2.7019 
  95   0.0000       0.114181         3.1070 
  96   0.0000       0.121827         3.3151 
  97   0.0000       0.155052         4.2192 
  98   0.0000       0.167005         4.5444 
  99   0.0000       0.174452         4.7471 
 100   0.0000       0.185135         5.0378 
 101   0.0000       0.198300         5.3960 
 102   0.0000       0.203019         5.5244 
*Only the first 10 virtual orbitals were printed.

                    ********************************
                    * MULLIKEN POPULATION ANALYSIS *
                    ********************************

-----------------------
MULLIKEN ATOMIC CHARGES
-----------------------
   0 C :    0.149535
   1 C :    0.044903
   2 C :   -0.160819
   3 C :   -0.114689
   4 C :   -0.140280
   5 C :   -0.129891
   6 H :    0.105395
   7 H :    0.107241
   8 H :    0.110837
   9 H :    0.101059
  10 N :   -0.448062
  11 B :    0.039852
  12 H :    0.135265
  13 H :    0.113003
  14 H :    0.136238
  15 C :   -0.352286
  16 H :    0.113641
  17 H :    0.130486
  18 H :    0.131558
  19 C :   -0.352276
  20 H :    0.130608
  21 H :    0.113950
  22 H :    0.128707
  23 C :   -0.501419
  24 C :   -0.005110
  25 C :   -0.095260
  26 H :   -0.065262
  27 H :   -0.076270
  28 C :    0.210515
  29 C :    0.219767
  30 O :   -0.496063
  31 O :   -0.501495
  32 B :    0.698964
  33 C :   -0.353666
  34 H :    0.132109
  35 H :    0.129495
  36 H :    0.113587
  37 C :   -0.350929
  38 H :    0.177094
  39 C :   -0.298592
  40 H :    0.144001
  41 H :    0.177726
  42 S :    0.356710
  43 C :   -0.191389
  44 H :    0.093162
  45 H :    0.113398
  46 H :    0.142321
  47 C :   -0.191322
  48 H :    0.114402
  49 H :    0.092239
  50 H :    0.117309
Sum of atomic charges:    0.0000000

--------------------------------
MULLIKEN REDUCED ORBITAL CHARGES
--------------------------------
  0 C s       :     3.103035  s :     3.103035
      pz      :     0.921279  p :     2.689468
      px      :     0.849170
      py      :     0.919018
      dz2     :     0.005721  d :     0.057962
      dxz     :     0.008425
      dyz     :     0.011091
      dx2y2   :     0.017637
      dxy     :     0.015090

  1 C s       :     3.209575  s :     3.209575
      pz      :     0.956245  p :     2.713530
      px      :     0.842257
      py      :     0.915028
      dz2     :     0.004004  d :     0.031992
      dxz     :     0.005402
      dyz     :     0.004425
      dx2y2   :     0.007430
      dxy     :     0.010731

  2 C s       :     3.185027  s :     3.185027
      pz      :     0.978069  p :     2.939270
      px      :     1.001489
      py      :     0.959712
      dz2     :     0.004112  d :     0.036522
      dxz     :     0.003826
      dyz     :     0.006639
      dx2y2   :     0.010562
      dxy     :     0.011383

  3 C s       :     3.153545  s :     3.153545
      pz      :     1.008329  p :     2.926285
      px      :     0.968400
      py      :     0.949556
      dz2     :     0.002860  d :     0.034859
      dxz     :     0.004803
      dyz     :     0.006402
      dx2y2   :     0.009772
      dxy     :     0.011022

  4 C s       :     3.170999  s :     3.170999
      pz      :     0.978613  p :     2.933521
      px      :     0.945764
      py      :     1.009145
      dz2     :     0.004760  d :     0.035759
      dxz     :     0.006490
      dyz     :     0.003771
      dx2y2   :     0.011894
      dxy     :     0.008844

  5 C s       :     3.151934  s :     3.151934
      pz      :     1.017825  p :     2.944305
      px      :     0.970158
      py      :     0.956323
      dz2     :     0.003923  d :     0.033651
      dxz     :     0.003814
      dyz     :     0.006157
      dx2y2   :     0.009360
      dxy     :     0.010397

  6 H s       :     0.882363  s :     0.882363
      pz      :     0.002636  p :     0.012242
      px      :     0.006145
      py      :     0.003461

  7 H s       :     0.880491  s :     0.880491
      pz      :     0.003627  p :     0.012268
      px      :     0.005471
      py      :     0.003169

  8 H s       :     0.876941  s :     0.876941
      pz      :     0.002683  p :     0.012222
      px      :     0.002002
      py      :     0.007536

  9 H s       :     0.886347  s :     0.886347
      pz      :     0.003033  p :     0.012594
      px      :     0.006213
      py      :     0.003348

 10 N s       :     3.576738  s :     3.576738
      pz      :     1.289007  p :     3.831027
      px      :     1.193066
      py      :     1.348953
      dz2     :     0.006049  d :     0.040297
      dxz     :     0.010523
      dyz     :     0.008331
      dx2y2   :     0.005476
      dxy     :     0.009917

 11 B s       :     2.904867  s :     2.904867
      pz      :     0.367185  p :     2.008117
      px      :     0.800329
      py      :     0.840604
      dz2     :     0.011217  d :     0.047164
      dxz     :     0.005664
      dyz     :     0.005575
      dx2y2   :     0.011717
      dxy     :     0.012991

 12 H s       :     0.853269  s :     0.853269
      pz      :     0.002281  p :     0.011466
      px      :     0.003690
      py      :     0.005494

 13 H s       :     0.875397  s :     0.875397
      pz      :     0.002878  p :     0.011600
      px      :     0.006359
      py      :     0.002364

 14 H s       :     0.851846  s :     0.851846
      pz      :     0.003157  p :     0.011916
      px      :     0.003471
      py      :     0.005288

 15 C s       :     3.240534  s :     3.240534
      pz      :     1.034230  p :     3.081520
      px      :     1.002385
      py      :     1.044905
      dz2     :     0.008306  d :     0.030233
      dxz     :     0.005860
      dyz     :     0.003797
      dx2y2   :     0.004201
      dxy     :     0.008069

 16 H s       :     0.874783  s :     0.874783
      pz      :     0.002264  p :     0.011576
      px      :     0.005490
      py      :     0.003821

 17 H s       :     0.857980  s :     0.857980
      pz      :     0.002727  p :     0.011534
      px      :     0.002629
      py      :     0.006178

 18 H s       :     0.856788  s :     0.856788
      pz      :     0.006363  p :     0.011654
      px      :     0.002940
      py      :     0.002351

 19 C s       :     3.239896  s :     3.239896
      pz      :     0.968327  p :     3.082192
      px      :     1.041638
      py      :     1.072227
      dz2     :     0.007488  d :     0.030187
      dxz     :     0.006569
      dyz     :     0.004533
      dx2y2   :     0.005754
      dxy     :     0.005844

 20 H s       :     0.857943  s :     0.857943
      pz      :     0.002448  p :     0.011449
      px      :     0.002342
      py      :     0.006658

 21 H s       :     0.874482  s :     0.874482
      pz      :     0.002164  p :     0.011568
      px      :     0.005903
      py      :     0.003501

 22 H s       :     0.859713  s :     0.859713
      pz      :     0.004057  p :     0.011580
      px      :     0.004402
      py      :     0.003122

 23 C s       :     3.326789  s :     3.326789
      pz      :     1.110449  p :     3.142520
      px      :     1.092106
      py      :     0.939965
      dz2     :     0.003780  d :     0.032109
      dxz     :     0.004306
      dyz     :     0.009223
      dx2y2   :     0.006323
      dxy     :     0.008478

 24 C s       :     3.177843  s :     3.177843
      pz      :     0.882467  p :     2.789069
      px      :     0.916520
      py      :     0.990082
      dz2     :     0.008979  d :     0.038198
      dxz     :     0.005510
      dyz     :     0.007849
      dx2y2   :     0.007019
      dxy     :     0.008841

 25 C s       :     3.141100  s :     3.141100
      pz      :     1.002546  p :     2.919253
      px      :     0.982009
      py      :     0.934699
      dz2     :     0.005701  d :     0.034907
      dxz     :     0.005239
      dyz     :     0.008950
      dx2y2   :     0.007842
      dxy     :     0.007174

 26 H s       :     1.058778  s :     1.058778
      pz      :     0.000770  p :     0.006484
      px      :     0.003090
      py      :     0.002624

 27 H s       :     1.068869  s :     1.068869
      pz      :     0.002618  p :     0.007401
      px      :     0.003289
      py      :     0.001494

 28 C s       :     3.145286  s :     3.145286
      pz      :     0.917215  p :     2.572223
      px      :     0.699679
      py      :     0.955329
      dz2     :     0.016511  d :     0.071975
      dxz     :     0.014877
      dyz     :     0.009330
      dx2y2   :     0.017278
      dxy     :     0.013979

 29 C s       :     3.140670  s :     3.140670
      pz      :     0.946386  p :     2.567290
      px      :     0.766262
      py      :     0.854643
      dz2     :     0.014562  d :     0.072273
      dxz     :     0.015790
      dyz     :     0.009265
      dx2y2   :     0.014575
      dxy     :     0.018081

 30 O s       :     3.840660  s :     3.840660
      pz      :     1.717268  p :     4.631341
      px      :     1.367738
      py      :     1.546335
      dz2     :     0.003117  d :     0.024062
      dxz     :     0.003825
      dyz     :     0.003818
      dx2y2   :     0.008635
      dxy     :     0.004666

 31 O s       :     3.842227  s :     3.842227
      pz      :     1.769825  p :     4.635502
      px      :     1.266468
      py      :     1.599208
      dz2     :     0.002999  d :     0.023767
      dxz     :     0.002786
      dyz     :     0.003999
      dx2y2   :     0.004002
      dxy     :     0.009982

 32 B s       :     2.631322  s :     2.631322
      pz      :     0.461853  p :     1.520412
      px      :     0.493241
      py      :     0.565318
      dz2     :     0.015461  d :     0.149301
      dxz     :     0.022519
      dyz     :     0.025377
      dx2y2   :     0.041632
      dxy     :     0.044313

 33 C s       :     3.240936  s :     3.240936
      pz      :     1.054927  p :     3.082504
      px      :     1.021277
      py      :     1.006300
      dz2     :     0.009919  d :     0.030226
      dxz     :     0.002745
      dyz     :     0.004427
      dx2y2   :     0.008265
      dxy     :     0.004870

 34 H s       :     0.856355  s :     0.856355
      pz      :     0.002744  p :     0.011536
      px      :     0.003044
      py      :     0.005748

 35 H s       :     0.858869  s :     0.858869
      pz      :     0.007154  p :     0.011636
      px      :     0.002304
      py      :     0.002178

 36 H s       :     0.874836  s :     0.874836
      pz      :     0.002499  p :     0.011576
      px      :     0.006831
      py      :     0.002246

 37 C s       :     3.240052  s :     3.240052
      pz      :     0.949107  p :     3.080837
      px      :     1.048792
      py      :     1.082939
      dz2     :     0.007899  d :     0.030040
      dxz     :     0.004876
      dyz     :     0.005687
      dx2y2   :     0.005395
      dxy     :     0.006183

 38 H s       :     0.810437  s :     0.810437
      pz      :     0.002631  p :     0.012469
      px      :     0.003908
      py      :     0.005930

 39 C s       :     3.268308  s :     3.268308
      pz      :     0.986603  p :     2.993965
      px      :     1.033526
      py      :     0.973837
      dz2     :     0.004822  d :     0.036319
      dxz     :     0.005820
      dyz     :     0.009931
      dx2y2   :     0.006684
      dxy     :     0.009062

 40 H s       :     0.843357  s :     0.843357
      pz      :     0.004262  p :     0.012641
      px      :     0.002659
      py      :     0.005720

 41 H s       :     0.809721  s :     0.809721
      pz      :     0.004897  p :     0.012553
      px      :     0.005399
      py      :     0.002257

 42 S s       :     5.814023  s :     5.814023
      pz      :     3.182063  p :     9.734768
      px      :     3.291924
      py      :     3.260781
      dz2     :     0.018326  d :     0.094499
      dxz     :     0.011855
      dyz     :     0.028423
      dx2y2   :     0.012410
      dxy     :     0.023485

 43 C s       :     3.200564  s :     3.200564
      pz      :     0.973122  p :     2.944243
      px      :     0.988092
      py      :     0.983029
      dz2     :     0.003362  d :     0.046581
      dxz     :     0.014600
      dyz     :     0.012116
      dx2y2   :     0.003964
      dxy     :     0.012539

 44 H s       :     0.895996  s :     0.895996
      pz      :     0.003625  p :     0.010841
      px      :     0.003812
      py      :     0.003404

 45 H s       :     0.875647  s :     0.875647
      pz      :     0.003223  p :     0.010955
      px      :     0.003615
      py      :     0.004117

 46 H s       :     0.846059  s :     0.846059
      pz      :     0.003845  p :     0.011620
      px      :     0.003973
      py      :     0.003802

 47 C s       :     3.194113  s :     3.194113
      pz      :     0.959375  p :     2.950039
      px      :     0.991300
      py      :     0.999365
      dz2     :     0.006171  d :     0.047170
      dxz     :     0.012192
      dyz     :     0.011617
      dx2y2   :     0.002232
      dxy     :     0.014959

 48 H s       :     0.874667  s :     0.874667
      pz      :     0.003676  p :     0.010931
      px      :     0.003405
      py      :     0.003850

 49 H s       :     0.896801  s :     0.896801
      pz      :     0.002839  p :     0.010960
      px      :     0.004208
      py      :     0.003913

 50 H s       :     0.871549  s :     0.871549
      pz      :     0.003754  p :     0.011142
      px      :     0.003719
      py      :     0.003669



                     *******************************
                     * LOEWDIN POPULATION ANALYSIS *
                     *******************************

----------------------
LOEWDIN ATOMIC CHARGES
----------------------
   0 C :    0.032526
   1 C :   -0.053953
   2 C :   -0.062070
   3 C :   -0.100541
   4 C :   -0.079456
   5 C :   -0.113482
   6 H :    0.075455
   7 H :    0.073885
   8 H :    0.074712
   9 H :    0.073841
  10 N :   -0.138724
  11 B :   -0.210084
  12 H :    0.084405
  13 H :    0.074514
  14 H :    0.081463
  15 C :   -0.204833
  16 H :    0.075386
  17 H :    0.082328
  18 H :    0.081133
  19 C :   -0.207347
  20 H :    0.081726
  21 H :    0.074290
  22 H :    0.079430
  23 C :   -0.200896
  24 C :    0.029326
  25 C :   -0.122460
  26 H :    0.002707
  27 H :    0.040857
  28 C :    0.089877
  29 C :    0.089956
  30 O :   -0.123495
  31 O :   -0.131245
  32 B :   -0.082404
  33 C :   -0.204755
  34 H :    0.083027
  35 H :    0.080597
  36 H :    0.075370
  37 C :   -0.206794
  38 H :    0.107003
  39 C :   -0.179134
  40 H :    0.089660
  41 H :    0.101681
  42 S :    0.440800
  43 C :   -0.118023
  44 H :    0.049424
  45 H :    0.068239
  46 H :    0.084901
  47 C :   -0.127733
  48 H :    0.069604
  49 H :    0.047457
  50 H :    0.071849

-------------------------------
LOEWDIN REDUCED ORBITAL CHARGES
-------------------------------
  0 C s       :     2.854872  s :     2.854872
      pz      :     0.949733  p :     2.973125
      px      :     0.978266
      py      :     1.045126
      dz2     :     0.012283  d :     0.139477
      dxz     :     0.018560
      dyz     :     0.024949
      dx2y2   :     0.044986
      dxy     :     0.038698

  1 C s       :     2.885278  s :     2.885278
      pz      :     0.971894  p :     3.088108
      px      :     1.018899
      py      :     1.097315
      dz2     :     0.008124  d :     0.080566
      dxz     :     0.013747
      dyz     :     0.009541
      dx2y2   :     0.021128
      dxy     :     0.028027

  2 C s       :     2.893358  s :     2.893358
      pz      :     0.981270  p :     3.082098
      px      :     1.047517
      py      :     1.053312
      dz2     :     0.008111  d :     0.086614
      dxz     :     0.008031
      dyz     :     0.015299
      dx2y2   :     0.027178
      dxy     :     0.027995

  3 C s       :     2.892204  s :     2.892204
      pz      :     1.009437  p :     3.123492
      px      :     1.049671
      py      :     1.064384
      dz2     :     0.005975  d :     0.084846
      dxz     :     0.009696
      dyz     :     0.014418
      dx2y2   :     0.026038
      dxy     :     0.028718

  4 C s       :     2.892811  s :     2.892811
      pz      :     0.991071  p :     3.100285
      px      :     1.055202
      py      :     1.054012
      dz2     :     0.009566  d :     0.086359
      dxz     :     0.015721
      dyz     :     0.008048
      dx2y2   :     0.029135
      dxy     :     0.023889

  5 C s       :     2.892340  s :     2.892340
      pz      :     1.027469  p :     3.138115
      px      :     1.049644
      py      :     1.061003
      dz2     :     0.007920  d :     0.083026
      dxz     :     0.008446
      dyz     :     0.014557
      dx2y2   :     0.025172
      dxy     :     0.026931

  6 H s       :     0.884393  s :     0.884393
      pz      :     0.008191  p :     0.040152
      px      :     0.020633
      py      :     0.011329

  7 H s       :     0.885966  s :     0.885966
      pz      :     0.011272  p :     0.040149
      px      :     0.018240
      py      :     0.010637

  8 H s       :     0.885431  s :     0.885431
      pz      :     0.007975  p :     0.039857
      px      :     0.006357
      py      :     0.025526

  9 H s       :     0.884948  s :     0.884948
      pz      :     0.009139  p :     0.041210
      px      :     0.020610
      py      :     0.011461

 10 N s       :     3.114711  s :     3.114711
      pz      :     1.317621  p :     3.929277
      px      :     1.238958
      py      :     1.372699
      dz2     :     0.013482  d :     0.094735
      dxz     :     0.025809
      dyz     :     0.019337
      dx2y2   :     0.012754
      dxy     :     0.023353

 11 B s       :     2.767840  s :     2.767840
      pz      :     0.499801  p :     2.333076
      px      :     0.908943
      py      :     0.924333
      dz2     :     0.027430  d :     0.109168
      dxz     :     0.012431
      dyz     :     0.013060
      dx2y2   :     0.026623
      dxy     :     0.029624

 12 H s       :     0.875803  s :     0.875803
      pz      :     0.007762  p :     0.039791
      px      :     0.012266
      py      :     0.019764

 13 H s       :     0.885938  s :     0.885938
      pz      :     0.009835  p :     0.039548
      px      :     0.022290
      py      :     0.007423

 14 H s       :     0.877938  s :     0.877938
      pz      :     0.010949  p :     0.040599
      px      :     0.011208
      py      :     0.018442

 15 C s       :     2.911403  s :     2.911403
      pz      :     1.076704  p :     3.231190
      px      :     1.066129
      py      :     1.088357
      dz2     :     0.016187  d :     0.062239
      dxz     :     0.013134
      dyz     :     0.008030
      dx2y2   :     0.008390
      dxy     :     0.016498

 16 H s       :     0.885461  s :     0.885461
      pz      :     0.007109  p :     0.039153
      px      :     0.019209
      py      :     0.012835

[...]
127:   2641.95   0.020126  101.71  0.002377  (-0.039568  0.024929 -0.013792)
128:   2979.51   0.013694   69.21  0.001434  ( 0.027120  0.025015 -0.008545)
129:   2989.80   0.026844  135.66  0.002802  (-0.046659 -0.006638 -0.024099)
130:   3080.78   0.001328    6.71  0.000135  (-0.002294 -0.000662  0.011352)
131:   3083.93   0.003474   17.56  0.000352  ( 0.006124  0.009835  0.014741)
132:   3085.08   0.002061   10.42  0.000208  ( 0.010741 -0.007356  0.006245)
133:   3088.88   0.004974   25.14  0.000502  ( 0.018550  0.009075 -0.008719)
134:   3098.31   0.006793   34.33  0.000684  ( 0.005600 -0.011171 -0.022979)
135:   3110.05   0.006696   33.84  0.000672  (-0.010221  0.021102  0.011051)
136:   3163.35   0.004421   22.34  0.000436  ( 0.017243 -0.010362  0.005609)
137:   3165.47   0.000755    3.81  0.000074  (-0.000947 -0.008493  0.001170)
138:   3166.49   0.001742    8.80  0.000172  (-0.003464  0.012614 -0.000776)
139:   3171.76   0.002522   12.75  0.000248  (-0.014901  0.002772  0.004291)
140:   3174.69   0.004305   21.76  0.000423  (-0.015911  0.013012 -0.000856)
141:   3175.96   0.008061   40.73  0.000792  (-0.023180 -0.015443  0.004027)
142:   3180.83   0.004697   23.74  0.000461  (-0.003186  0.021212 -0.000869)
143:   3190.71   0.003073   15.53  0.000301  (-0.004537 -0.005182  0.015909)
144:   3192.14   0.003801   19.21  0.000372  ( 0.012257  0.001913  0.014754)
145:   3203.28   0.001829    9.24  0.000178  (-0.009345 -0.002989  0.009051)
146:   3206.68   0.000728    3.68  0.000071  ( 0.007411  0.003797 -0.001220)
147:   3215.07   0.002861   14.46  0.000278  ( 0.006220  0.015459  0.000114)
148:   3231.19   0.006299   31.83  0.000608  ( 0.022480  0.000153 -0.010149)
149:   3240.23   0.005157   26.06  0.000497  ( 0.001727 -0.020671 -0.008151)
150:   3264.61   0.000252    1.28  0.000024  ( 0.001851  0.002543 -0.003773)
151:   3276.64   0.000171    0.86  0.000016  (-0.001820 -0.000893  0.003487)
152:   3291.11   0.000115    0.58  0.000011  ( 0.000380  0.002748 -0.001802)

* The epsilon (eps) is given for a Dirac delta lineshape.
** The dipole moment derivative (T) already includes vibrational overlap.

The first frequency considered to be a vibration is 8
The total number of vibrations considered is 145


--------------------------
THERMOCHEMISTRY AT 298.15K
--------------------------

Temperature         ...   298.15 K
Pressure            ...     1.00 atm
Total Mass          ...   343.10 AMU
Quasi RRHO          ...     True
Cut-Off Frequency   ...     1.00 cm^-1

Throughout the following assumptions are being made:
  (1) The electronic state is orbitally nondegenerate
  (2) There are no thermally accessible electronically excited states
  (3) Hindered rotations indicated by low frequency modes are not
      treated as such but are treated as vibrations and this may
      cause some error
  (4) All equations used are the standard statistical mechanics
      equations for an ideal gas
  (5) All vibrations are strictly harmonic

freq.      29.48  E(vib)   ...       0.55 
freq.      46.29  E(vib)   ...       0.53 
freq.      57.49  E(vib)   ...       0.51 
freq.      62.65  E(vib)   ...       0.51 
freq.      84.22  E(vib)   ...       0.48 
freq.     102.66  E(vib)   ...       0.46 
freq.     115.86  E(vib)   ...       0.44 
freq.     129.07  E(vib)   ...       0.43 
freq.     129.83  E(vib)   ...       0.43 
freq.     140.61  E(vib)   ...       0.41 
freq.     163.44  E(vib)   ...       0.39 
freq.     209.58  E(vib)   ...       0.34 
freq.     226.92  E(vib)   ...       0.33 
freq.     237.12  E(vib)   ...       0.32 
freq.     246.42  E(vib)   ...       0.31 
freq.     259.06  E(vib)   ...       0.30 
freq.     270.90  E(vib)   ...       0.29 
freq.     282.99  E(vib)   ...       0.28 
freq.     300.90  E(vib)   ...       0.26 
freq.     303.80  E(vib)   ...       0.26 
freq.     306.09  E(vib)   ...       0.26 
freq.     311.81  E(vib)   ...       0.25 
freq.     320.52  E(vib)   ...       0.25 
freq.     337.00  E(vib)   ...       0.24 
freq.     357.10  E(vib)   ...       0.22 
freq.     372.02  E(vib)   ...       0.21 
freq.     374.21  E(vib)   ...       0.21 
freq.     389.39  E(vib)   ...       0.20 
freq.     399.74  E(vib)   ...       0.19 
freq.     427.36  E(vib)   ...       0.18 
freq.     481.17  E(vib)   ...       0.15 
freq.     485.93  E(vib)   ...       0.15 
freq.     499.53  E(vib)   ...       0.14 
freq.     510.86  E(vib)   ...       0.14 
freq.     531.84  E(vib)   ...       0.13 
freq.     539.90  E(vib)   ...       0.12 
freq.     570.06  E(vib)   ...       0.11 
freq.     580.36  E(vib)   ...       0.11 
freq.     590.46  E(vib)   ...       0.10 
freq.     600.27  E(vib)   ...       0.10 
freq.     608.08  E(vib)   ...       0.10 
freq.     654.25  E(vib)   ...       0.08 
freq.     684.36  E(vib)   ...       0.07 
freq.     736.15  E(vib)   ...       0.06 
freq.     761.10  E(vib)   ...       0.06 
freq.     763.31  E(vib)   ...       0.06 
freq.     769.63  E(vib)   ...       0.05 
freq.     786.05  E(vib)   ...       0.05 
freq.     795.14  E(vib)   ...       0.05 
freq.     804.16  E(vib)   ...       0.05 
freq.     829.21  E(vib)   ...       0.04 
freq.     880.89  E(vib)   ...       0.04 
freq.     897.34  E(vib)   ...       0.03 
freq.     900.32  E(vib)   ...       0.03 
freq.     905.65  E(vib)   ...       0.03 
freq.     911.61  E(vib)   ...       0.03 
freq.     949.06  E(vib)   ...       0.03 
freq.     951.05  E(vib)   ...       0.03 
freq.     954.68  E(vib)   ...       0.03 
freq.     971.31  E(vib)   ...       0.03 
freq.     977.50  E(vib)   ...       0.03 
freq.     987.54  E(vib)   ...       0.02 
freq.     989.47  E(vib)   ...       0.02 
freq.     998.04  E(vib)   ...       0.02 
freq.    1004.50  E(vib)   ...       0.02 
freq.    1018.61  E(vib)   ...       0.02 
freq.    1020.62  E(vib)   ...       0.02 
freq.    1038.30  E(vib)   ...       0.02 
freq.    1088.45  E(vib)   ...       0.02 
freq.    1091.05  E(vib)   ...       0.02 
freq.    1104.37  E(vib)   ...       0.02 
freq.    1115.88  E(vib)   ...       0.01 
freq.    1124.26  E(vib)   ...       0.01 
freq.    1129.29  E(vib)   ...       0.01 
freq.    1143.25  E(vib)   ...       0.01 
freq.    1162.05  E(vib)   ...       0.01 
freq.    1181.44  E(vib)   ...       0.01 
freq.    1189.41  E(vib)   ...       0.01 
freq.    1195.20  E(vib)   ...       0.01 
freq.    1199.57  E(vib)   ...       0.01 
freq.    1208.39  E(vib)   ...       0.01 
freq.    1215.46  E(vib)   ...       0.01 
freq.    1248.82  E(vib)   ...       0.01 
freq.    1257.45  E(vib)   ...       0.01 
freq.    1268.99  E(vib)   ...       0.01 
freq.    1269.98  E(vib)   ...       0.01 
freq.    1290.77  E(vib)   ...       0.01 
freq.    1314.45  E(vib)   ...       0.01 
freq.    1319.17  E(vib)   ...       0.01 
freq.    1333.44  E(vib)   ...       0.01 
freq.    1346.51  E(vib)   ...       0.01 
freq.    1356.94  E(vib)   ...       0.01 
freq.    1378.05  E(vib)   ...       0.01 
freq.    1393.84  E(vib)   ...       0.00 
freq.    1420.78  E(vib)   ...       0.00 
freq.    1423.83  E(vib)   ...       0.00 
freq.    1430.91  E(vib)   ...       0.00 
freq.    1440.40  E(vib)   ...       0.00 
freq.    1454.98  E(vib)   ...       0.00 
freq.    1480.98  E(vib)   ...       0.00 
freq.    1483.99  E(vib)   ...       0.00 
freq.    1485.79  E(vib)   ...       0.00 
freq.    1494.83  E(vib)   ...       0.00 
freq.    1495.64  E(vib)   ...       0.00 
freq.    1496.97  E(vib)   ...       0.00 
freq.    1498.84  E(vib)   ...       0.00 
freq.    1501.20  E(vib)   ...       0.00 
freq.    1510.75  E(vib)   ...       0.00 
freq.    1514.88  E(vib)   ...       0.00 
freq.    1516.43  E(vib)   ...       0.00 
freq.    1520.27  E(vib)   ...       0.00 
freq.    1522.92  E(vib)   ...       0.00 
freq.    1535.56  E(vib)   ...       0.00 
freq.    1538.00  E(vib)   ...       0.00 
freq.    1549.68  E(vib)   ...       0.00 
freq.    1565.66  E(vib)   ...       0.00 
freq.    1663.64  E(vib)   ...       0.00 
freq.    1687.21  E(vib)   ...       0.00 
freq.    2510.28  E(vib)   ...       0.00 
freq.    2641.95  E(vib)   ...       0.00 
freq.    2979.51  E(vib)   ...       0.00 
freq.    2989.80  E(vib)   ...       0.00 
freq.    3080.78  E(vib)   ...       0.00 
freq.    3083.93  E(vib)   ...       0.00 
freq.    3085.08  E(vib)   ...       0.00 
freq.    3088.88  E(vib)   ...       0.00 
freq.    3098.31  E(vib)   ...       0.00 
freq.    3110.05  E(vib)   ...       0.00 
freq.    3163.35  E(vib)   ...       0.00 
freq.    3165.47  E(vib)   ...       0.00 
freq.    3166.49  E(vib)   ...       0.00 
freq.    3171.76  E(vib)   ...       0.00 
freq.    3174.69  E(vib)   ...       0.00 
freq.    3175.96  E(vib)   ...       0.00 
freq.    3180.83  E(vib)   ...       0.00 
freq.    3190.71  E(vib)   ...       0.00 
freq.    3192.14  E(vib)   ...       0.00 
freq.    3203.28  E(vib)   ...       0.00 
freq.    3206.68  E(vib)   ...       0.00 
freq.    3215.07  E(vib)   ...       0.00 
freq.    3231.19  E(vib)   ...       0.00 
freq.    3240.23  E(vib)   ...       0.00 
freq.    3264.61  E(vib)   ...       0.00 
freq.    3276.64  E(vib)   ...       0.00 
freq.    3291.11  E(vib)   ...       0.00 

------------
INNER ENERGY
------------

The inner energy is: U= E(el) + E(ZPE) + E(vib) + E(rot) + E(trans)
    E(el)   - is the total energy from the electronic structure calculation
              = E(kin-el) + E(nuc-el) + E(el-el) + E(nuc-nuc)
    E(ZPE)  - the the zero temperature vibrational energy from the frequency calculation
    E(vib)  - the the finite temperature correction to E(ZPE) due to population
              of excited vibrational states
    E(rot)  - is the rotational thermal energy
    E(trans)- is the translational thermal energy

Summary of contributions to the inner energy U:
Electronic energy                ...  -1355.10107396 Eh
Zero point energy                ...      0.43119387 Eh     270.58 kcal/mol
Thermal vibrational correction   ...      0.02032470 Eh      12.75 kcal/mol
Thermal rotational correction    ...      0.00141627 Eh       0.89 kcal/mol
Thermal translational correction ...      0.00141627 Eh       0.89 kcal/mol
-----------------------------------------------------------------------
Total thermal energy                  -1354.64672284 Eh


Summary of corrections to the electronic energy:
(perhaps to be used in another calculation)
Total thermal correction                  0.02315725 Eh      14.53 kcal/mol
Non-thermal (ZPE) correction              0.43119387 Eh     270.58 kcal/mol
-----------------------------------------------------------------------
Total correction                          0.45435111 Eh     285.11 kcal/mol


--------
ENTHALPY
--------

The enthalpy is H = U + kB*T
                kB is Boltzmann's constant
Total thermal energy              ...  -1354.64672284 Eh 
Thermal Enthalpy correction       ...      0.00094421 Eh       0.59 kcal/mol
-----------------------------------------------------------------------
Total Enthalpy                    ...  -1354.64577863 Eh


Note: Only C1 symmetry has been detected, increase convergence thresholds 
      if your molecule has a higher symmetry. Symmetry factor of 1.0 is   
      used for the rotational entropy correction. 
 

Note: Rotational entropy computed according to Herzberg 
Infrared and Raman Spectra, Chapter V,1, Van Nostrand Reinhold, 1945 
Point Group:  C1, Symmetry Number:   1  
Rotational constants in cm-1:     0.011818     0.005670     0.004589 

Vibrational entropy computed according to the QRRHO of S. Grimme
Chem.Eur.J. 2012 18 9955 using a reference frequency of 100.0 cm-1


-------
ENTROPY
-------

The entropy contributions are T*S = T*(S(el)+S(vib)+S(rot)+S(trans))
     S(el)   - electronic entropy
     S(vib)  - vibrational entropy
     S(rot)  - rotational entropy
     S(trans)- translational entropy
The entropies will be listed as multiplied by the temperature to get
units of energy

Electronic entropy                ...      0.00000000 Eh      0.00 kcal/mol
Vibrational entropy               ...      0.03494013 Eh     21.93 kcal/mol
Rotational entropy                ...      0.01658975 Eh     10.41 kcal/mol
Translational entropy             ...      0.02061729 Eh     12.94 kcal/mol
-----------------------------------------------------------------------
Final entropy term                ...      0.07214717 Eh     45.27 kcal/mol

In case the symmetry of your molecule has not been determined correctly
or in case you have a reason to use a different symmetry number we print 
out the resulting rotational entropy values for sn=1,12:

 non-linear molecules -----------------------------------
|  sn= 1 | S(rot)=       0.01658975 Eh     10.41 kcal/mol|
|  sn= 2 | S(rot)=       0.01593529 Eh     10.00 kcal/mol|
|  sn= 3 | S(rot)=       0.01555246 Eh      9.76 kcal/mol|
|  sn= 4 | S(rot)=       0.01528083 Eh      9.59 kcal/mol|
|  sn= 5 | S(rot)=       0.01507015 Eh      9.46 kcal/mol|
|  sn= 6 | S(rot)=       0.01489800 Eh      9.35 kcal/mol|
|  sn= 7 | S(rot)=       0.01475246 Eh      9.26 kcal/mol|
|  sn= 8 | S(rot)=       0.01462638 Eh      9.18 kcal/mol|
|  sn= 9 | S(rot)=       0.01451517 Eh      9.11 kcal/mol|
|  sn=10 | S(rot)=       0.01441569 Eh      9.05 kcal/mol|
|  sn=11 | S(rot)=       0.01432570 Eh      8.99 kcal/mol|
|  sn=12 | S(rot)=       0.01424355 Eh      8.94 kcal/mol|
 linear molecules ---------------------------------------
|  Dinfh | S(rot)=       0.01040939 Eh      6.53 kcal/mol|
|  Cinfv | S(rot)=       0.01106384 Eh      6.94 kcal/mol|
 --------------------------------------------------------


-------------------
GIBBS FREE ENERGY
-------------------

The Gibbs free energy is G = H - T*S

Total enthalpy                    ...  -1354.64577863 Eh 
Total entropy correction          ...     -0.07214717 Eh    -45.27 kcal/mol
-----------------------------------------------------------------------
Final Gibbs free energy         ...  -1354.71792580 Eh

For completeness - the Gibbs free energy minus the electronic energy
G-E(el)                           ...      0.38314815 Eh    240.43 kcal/mol

WARNING (PropertyFile): The property 'Hessian' exists multiple times for geometry 1 which is not allowed

Maximum memory used throughout the entire PROP-calculation: 356.7 MB

--------------------------------
SUGGESTED CITATIONS FOR THIS RUN
--------------------------------

Below you find a list of papers that are relevant to this ORCA run
We neither can nor want to force you to cite these papers, but we appreciate if you do
You receive ORCA, which is the product of decades of hard work by many enthusiastic individuals, for free
The only thing we kindly ask in return is that you cite our papers,
We deeply appreciate it, if you show your appreciation for ORCA by not just citing the generic ORCA reference.

Please note that relegating all ORCA citations to the supporting information does *not* help us.
SI sections are not indexed - citations you put there will not count into any citation statistics
But we need these citations in order to attract the funding resources that allow us to do what we are doing

Therefore, if you are a happy ORCA user, please consider citing a few of the papers listed below in the main body of your paper

In addition to the list printed below, the program has created the file input.bibtex that contains the list in bibtex format
You can import this file easily into all common literature databanks and citation aid programs


List of essential papers. We consider these as the minimum necessary citations

  1. Neese, F.
     Software update: the ORCA program system, version 6.0
     WIRES Comput. Molec. Sci. 2025 15(1), e70019
     doi.org/10.1002/wcms.7019

List of papers to cite with high priority. The work reported in these papers was absolutely
necessary for this run to complete.
Our perspective: the developers of density functionals and basis sets usually get cited in chemistry papers
Good! But without the algorithms to do something with them, the functionals or basis sets would not do anything.
Hence, in our opinion, the algorithm design and method developments papers are equally worthy of getting cited

  1. Neese, F.
     An improvement of the resolution of the identity approximation for the formation of the Coulomb matrix
     J. Comp. Chem. 2003 24(14), 1740-1747
     doi.org/10.1002/jcc.10318
  2. Neese, F.; Wennmohs, F.; Hansen, A.; Becker, U.
     Efficient, approximate and parallel Hartree-Fock and hybrid DFT calculations. A 'chain-of-spheres' algorithm for the Hartree-Fock exchange
     Chem. Phys. 2009 356(1-3), 98-109
     doi.org/10.1016/j.chemphys.2008.10.036
  3. Grimme, S.; Antony, J.; Ehrlich, S.; Krieg, H.
     A consistent and accurate ab initio parametrization of density functional dispersion correction (DFT-D) for the 94 elements H-Pu
     J. Chem. Phys. 2010 132 , 154104
     doi.org/10.1063/1.3382344
  4. Bykov, D.; Petrenko, T.; Izsak, R.; Kossmann, S.; Becker, U.; Valeev, E.; Neese, F.
     Efficient implementation of the analytic second derivatives of Hartree-Fock and hybrid DFT energies: a detailed analysis of different approximations
     Molec. Phys. 2015 113 , 1961-1977
     doi.org/10.1080/00268976.2015.1025114
  5. Helmich-Paris, B.; de Souza, B.; Neese, F.; Izsák, R.
     An improved chain of spheres for exchange algorithm
     J. Chem. Phys. 2021 155(10), 104109
     doi.org/10.1063/5.0058766
  6. Neese, F.
     The SHARK Integral Generation and Digestion System
     J. Comp. Chem. 2022 44(3), 381
     doi.org/10.1002/jcc.26942

List of suggested additional citations. These are papers that are important in the 'surrounding' of 
of this run, or papers that preceded the highly important papers. If you like your results we are grateful for a citation.

  1. Izsak, R.; Neese, F.
     An overlap fitted chain of spheres exchange method
     J. Chem. Phys. 2011 135 , 144105
     doi.org/10.1063/1.3646921
  2. Izsak, R.; Hansen, A.; Neese, F.
     The resolution of identity and chain of spheres approximations for the LPNO-CCSD singles Fock term
     Molec. Phys. 2012 110 , 2413-2417
     doi.org/10.1080/00268976.2012.687466
  3. Neese, F.
     The ORCA program system
     WIRES Comput. Molec. Sci. 2012 2(1), 73-78
     doi.org/10.1002/wcms.81
  4. Izsak, R.; Neese, F.; Klopper, W.
     Robust fitting techniques in the chain of spheres approximation to the Fock exchange: The role of the complementary space
     J. Chem. Phys. 2013 139 , 
     doi.org/10.1063/1.4819264
  5. Neese, F.
     Software update: the ORCA program system, version 4.0
     WIRES Comput. Molec. Sci. 2018 8(1), 1-6
     doi.org/10.1002/wcms.1327
  6. Neese, F.; Wennmohs, F.; Becker, U.; Riplinger, C.
     The ORCA quantum chemistry program package
     J. Chem. Phys. 2020 152(22), 224108
     doi.org/10.1063/5.0004608
  7. Neese, F.
     Software update: The ORCA program system—Version 5.0
     WIRES Comput. Molec. Sci. 2022 12(1), e1606
     doi.org/10.1002/wcms.1606

List of optional additional citations

  1. Neese, F.
     Approximate second-order SCF convergence for spin unrestricted wavefunctions
     Chem. Phys. Lett. 2000 325(1-3), 93-98
     doi.org/10.1016/s0009-2614(00)00662-x

Timings for individual modules:

Sum of individual times          ...     1952.245 sec (=  32.537 min)
Startup calculation              ...        6.991 sec (=   0.117 min)   0.4 %
SCF iterations                   ...      181.463 sec (=   3.024 min)   9.3 %
Property integrals               ...      435.445 sec (=   7.257 min)  22.3 %
SCF Response                     ...      569.974 sec (=   9.500 min)  29.2 %
Property calculations            ...      758.373 sec (=  12.640 min)  38.8 %
WARNING (JSON): The property 'Hessian' exists multiple times for geometry 1 which is not allowed => overwriting previous entry!
                             ****ORCA TERMINATED NORMALLY****
TOTAL RUN TIME: 0 days 1 hours 1 minutes 34 seconds 519 msec
