
                                 *****************
                                 * O   R   C   A *
                                 *****************

                                            #,                                       
                                            ###                                      
                                            ####                                     
                                            #####                                    
                                            ######                                   
                                           ########,                                 
                                     ,,################,,,,,                         
                               ,,#################################,,                 
                          ,,##########################################,,             
                       ,#########################################, ''#####,          
                    ,#############################################,,   '####,        
                  ,##################################################,,,,####,       
                ,###########''''           ''''###############################       
              ,#####''   ,,,,##########,,,,          '''####'''          '####       
            ,##' ,,,,###########################,,,                        '##       
           ' ,,###''''                  '''############,,,                           
         ,,##''                                '''############,,,,        ,,,,,,###''
      ,#''                                            '''#######################'''  
     '                                                          ''''####''''         
             ,#######,   #######,   ,#######,      ##                                
            ,#'     '#,  ##    ##  ,#'     '#,    #''#        ,####,   ,####,        
            ##       ##  ##   ,#'  ##            #'  '#       #'       #'  '#        
            ##       ##  #######   ##           ,######,      #####,   #    #        
            '#,     ,#'  ##    ##  '#,     ,#' ,#      #,     #,   #   #,  ,#        
             '#######'   ##     ##  '#######'  #'      '#     '####' # '####'        



                #########################################################
                #                        -***-                          #
                #          Department of theory and spectroscopy        #
                #                                                       #
                #                      Frank Neese                      #
                #                                                       #
                #     Directorship, Architecture, Infrastructure        #
                #                    SHARK, DRIVERS                     #
                #        Core code/Algorithms in most modules           #
                #                                                       #
                #        Max Planck Institute fuer Kohlenforschung      #
                #                Kaiser Wilhelm Platz 1                 #
                #                 D-45470 Muelheim/Ruhr                 #
                #                      Germany                          #
                #                                                       #
                #                  All rights reserved                  #
                #                        -***-                          #
                #########################################################


                         Program Version 6.0.1  -  RELEASE   -


 With contributions from (in alphabetic order):
[Max-Planck-Institut fuer Kohlenforschung]                               
  Daniel Aravena         : Magnetic Suceptibility                        
  Michael Atanasov       : Ab Initio Ligand Field Theory (pilot matlab implementation)
  Alexander A. Auer      : GIAO ZORA, VPT2 properties, NMR spectrum      
  Ute Becker             : All parallelization in ORCA, NUMFREQ, NUMCALC 
  Giovanni Bistoni       : ED, misc. LED, open-shell LED, HFLD           
  Martin Brehm           : Molecular dynamics                            
  Dmytro Bykov           : pre 5.0 version of the SCF Hessian            
  Marcos Casanova-Páez   : Triplet and SCS-CIS(D). UHF-(DLPNO)-IP/EA/STEOM-CCSD. UHF-CVS-IP/STEOM-CCSD   
  Vijay G. Chilkuri      : MRCI spin determinant printing, contributions to CSF-ICE 
  Pauline Colinet        : FMM embedding                                 
  Dipayan Datta          : RHF DLPNO-CCSD density                        
  Achintya Kumar Dutta   : EOM-CC, STEOM-CC                              
  Nicolas Foglia         : Exact transition moments, OPA infrastructure, MCD improvements    
  Dmitry Ganyushin       : Spin-Orbit,Spin-Spin,Magnetic field MRCI      
  Miquel Garcia-Rates    : C-PCM and meta-GGA Hessian, CCSD/C-PCM, Gaussian charge scheme 
  Tiago L. C. Gouveia    : GS-ROHF, GS-ROCIS                             
  Yang Guo               : DLPNO-NEVPT2, F12-NEVPT2, CIM, IAO-localization        
  Andreas Hansen         : Spin unrestricted coupled pair/coupled cluster methods 
  Ingolf Harden          : AUTO-CI MPn and infrastructure                
  Benjamin Helmich-Paris : MC-RPA, TRAH-(SCF,CASSCF), AVAS, COSX integrals, SCF dyn. polar. 
  Lee Huntington         : MR-EOM, pCC                                   
  Robert Izsak           : Overlap fitted RIJCOSX, COSX-SCS-MP3, EOM     
  Riya Kayal             : Wick's Theorem for AUTO-CI, AUTO-CI UHF-CCSDT 
  Emily Kempfer          : AUTO-CI, RHF CISDT and CCSDT                  
  Christian Kollmar      : KDIIS, OOCD, Brueckner-CCSD(T), CCSD density, CASPT2, CASPT2-K, improved NEVPT2 
  Axel Koslowski         : Symmetry handling                             
  Simone Kossmann        : meta-GGA functionals, TD-DFT gradient, OOMP2, (MP2 Hessian; deprecated post 5.0) 
  Lucas Lang             : DCDCAS                                        
  Marvin Lechner         : AUTO-CI (C++ implementation), FIC-MRCC        
  Spencer Leger          : CASSCF response                               
  Dagmar Lenk            : GEPOL surface, SMD, ORCA-2-JSON               
  Dimitrios Liakos       : Extrapolation schemes; Compound Job, initial MDCI parallelization 
  Dimitrios Manganas     : Further ROCIS development; embedding schemes. LFT, Crystal Embedding 
  Dimitrios Pantazis     : SARC Basis sets                               
  Anastasios Papadopoulos: AUTO-CI, single reference methods and gradients 
  Taras Petrenko         : pre 6.0 DFT Hessian and TD-DFT gradient, (ASA, deprecated), ECA, 1-Electron XAS/XES, NRVS 
  Peter Pinski           : DLPNO-MP2, DLPNO-MP2 Gradient                 
  Christoph Reimann      : Effective Core Potentials                     
  Marius Retegan         : Local ZFS, SOC                                
  Christoph Riplinger    : Optimizer, TS searches, QM/MM, DLPNO-CCSD(T), (RO)-DLPNO pert. Triples 
  Michael Roemelt        : Original ROCIS implementation                 
  Masaaki Saitow         : Open-shell DLPNO-CCSD energy and density      
  Barbara Sandhoefer     : DKH picture change effects                    
  Kantharuban Sivalingam : CASSCF convergence/infrastructure, NEVPT2 and variants, FIC-MRCI 
  Bernardo de Souza      : ESD, SOC TD-DFT                               
  Georgi L. Stoychev     : AutoAux, RI-MP2 NMR, DLPNO-MP2 response, X2C  
  Van Anh Tran           : RI-MP2 g-tensors                              
  Willem Van den Heuvel  : Paramagnetic NMR                              
  Zikuan Wang            : NOTCH, Electric field optimization            
  Frank Wennmohs         : Technical directorship and infrastructure     
  Hang Xu                : AUTO-CI-Response properties                   
                                                                         
[FACCTs GmbH]                                                            
  Markus Bursch, Miquel Garcia-Rates, Christoph Riplinger, Bernardo de Souza, Georgi L. Stoychev 
                                                                 
  APM, Basis sets (HGBS, AHGBS, def-TZVP (Ac-Lr), def2-XVPD (La-Lu)), CI-OPT, improved COSX, DLPNO-Multilevel,           
  DOCKER, DRACO, updates on ESD, GOAT, IRC, LR-CPCM, MBIS, meta-GGA TD-DFT gradient, ML-optimized integration grids, 
  MM, NACMEs, nearIR, NEB, NEB-TS, NL-DFT gradient (VV10), 2- and 3-layer-ONIOM, interface openCOSMO-RS, QMMM,   
  Crystal-QMMM, SF, symmetry and pop. for TD-DFT, r2SCAN hybrids, SOLVATOR                                   
                                                                         
[Other institutions]                                                     
  V. Asgeirsson          : NEB                                           
  Christoph Bannwarth    : sTDA-DFT, sTD-DFT, PBEh-3c, B97-3c, D3        
  Sebastian Ehlert       : rSCAN, r2SCAN, r2SCAN-3c, D4, dhf basis sets  
  Marvin Friede          : D4 for Fr, Ra, Ac-Lr                          
  Lars Goerigk           : TD-DFT with DH, B97 family of functionals     
  Stefan Grimme          : VdW corrections, initial TS optimization, DFT functionals, gCP, sTDA/sTD-DF 
  Waldemar Hujo          : DFT-NL                                        
  H. Jonsson             : NEB                                           
  Holger Kruse           : gCP                                           
  Marcel Mueller         : wB97X-3c, vDZP basis set                      
  Hagen Neugebauer       : wr2SCAN                                       
  Tobias Risthaus        : range-separated hybrid DFT                    
  Lukas Wittmann         : regularized MP2, r2SCAN double-hybrids, wr2SCAN        
                                                                         
We gratefully acknowledge several colleagues who have allowed us to      
interface, adapt or use parts of their codes:                            
  Ed Valeev, F. Pavosevic, A. Kumar             : LibInt (2-el integral package), F12 methods 
  Garnet Chan, S. Sharma, J. Yang, R. Olivares  : DMRG                   
  Ulf Ekstrom                                   : XCFun DFT Library      
  Mihaly Kallay                                 : mrcc  (arbitrary order and MRCC methods)
  Frank Weinhold                                : gennbo (NPA and NBO analysis)           
  Simon Mueller                                 : openCOSMO-RS                            
  Christopher J. Cramer and Donald G. Truhlar   : smd solvation model                     
  S Lehtola, MJT Oliveira, MAL Marques          : LibXC Library                           
  Liviu Ungur et al                             : ANISO software                          


 Your calculation uses the libint2 library for the computation of 2-el integrals
 For citations please refer to: http://libint.valeyev.net

 Your ORCA version has been built with support for libXC version: 6.2.2
 For citations please refer to: https://libxc.gitlab.io

 This ORCA versions uses:
   CBLAS   interface :  Fast vector & matrix operations
   LAPACKE interface :  Fast linear algebra routines
   SCALAPACK package :  Parallel linear algebra routines
   Shared memory     :  Shared parallel matrices
   BLAS/LAPACK       :  OpenBLAS 0.3.27  USE64BITINT DYNAMIC_ARCH NO_AFFINITY Zen SINGLE_THREADED
        Core in use  :  Zen
   Copyright (c) 2011-2014, The OpenBLAS Project


NOTE: MaxCore=2560 MB was set to SCF,MP2,MDCI,CIPSI,MRCI and CIS
      => If you want to overwrite this, your respective input block should be placed after the MaxCore statement
Your calculation utilizes the atom-pairwise dispersion correction
with the zero-damping scheme (D30)


XCFun DFT library Copyright 2009-2010 Ulf Ekstrom and contributors.
See http://admol.org/xcfun for more information.
This is free software; see the source code for copying conditions.
There is ABSOLUTELY NO WARRANTY; not even for MERCHANTABILITY or FITNESS FOR A PARTICULAR PURPOSE.
For details see the documentation.
Scientific users of this library should cite U. Ekstrom, L. Visscher, R. Bast, A. J. Thorvaldsen and K. Ruud;
J.Chem.Theor.Comp. 2010, DOI: 10.1021/ct100117s
XCFun Version 0.99 

Warning: RI is on but no J-basis has been assigned. Assigning Def2/J (nothing to worry about!)
================================================================================

----- Orbital basis set information -----
Your calculation utilizes the basis: 6-31G**
   H-He, Li-Ne : W. J. Hehre, R. Ditchfield and J.A. Pople, J. Chem. Phys. 56, 2257 (1972).
                 Note: He and Ne are unpublished basis sets taken from the Gaussian program.
                 Note: Li and B from J. D. Dill and J. A. Pople, J. Chem. Phys. 62, 2921 (1975).
   Na - Ar     : M. M. Francl, W. J. Pietro, W. J. Hehre, J. S. Binkley, M. S. Gordon, 
                 D. J. DeFrees and J. A. Pople, J. Chem. Phys. 77, 3654 (1982).
   K - Zn      : V. A. Rassolov, J. A. Pople, M. A. Ratner, and T. L. Windus, J. Chem. Phys. 109, 1223 (1998).

----- AuxJ basis set information -----
Your calculation utilizes the auxiliary basis: def2/J
   F. Weigend, Phys. Chem. Chem. Phys. 8, 1057 (2006).

================================================================================
                                        WARNINGS
                       Please study these warnings very carefully!
================================================================================

WARNING: SinglePoint found together with IRC
         Switching on EnGrad - energy plus gradient calculation

================================================================================
                                       INPUT FILE
================================================================================
NAME = input.inp
|  1> # Automatically generated ORCA input
|  2> 
|  3> # Number of cores
|  4> %pal nprocs 24 end
|  5> # RAM per core
|  6> %maxcore 2560
|  7> 
|  8> ! wB97X-D3 
|  9> ! 6-31G** 
| 10> ! TightSCF 
| 11> ! NoSym 
| 12> ! IRC 
| 13> 
| 14> %geom
| 15>     Calc_Hess true
| 16>     end
| 17> 
| 18> 
| 19> *xyz 0 1 
| 20> C        -1.31829200     -2.05511900      0.53709000
| 21> C        -0.02369800     -1.67331700      0.94703300
| 22> C         1.00045200     -2.61267400      0.72775200
| 23> C         0.77876100     -3.85976200      0.15624200
| 24> C        -0.51268900     -4.21532400     -0.22702400
| 25> C        -1.55148500     -3.31252600     -0.03490400
| 26> H         2.01150800     -2.34200900      1.02452300
| 27> H         1.60395500     -4.55179600      0.01118500
| 28> H        -0.71379300     -5.18508300     -0.67270500
| 29> H        -2.55110600     -3.60258800     -0.32850000
| 30> H        -1.55862400      0.10360000      1.04789500
| 31> B         0.37331800     -0.29150300      1.70001600
| 32> N        -2.41614400     -1.10144500      0.73040300
| 33> C        -3.26756400     -1.38369200      1.97017700
| 34> C        -3.16901500     -0.68894800     -0.52807500
| 35> C        -4.21079800     -0.18875400      2.20823800
| 36> C        -2.35082400     -1.51207900      3.19200900
| 37> C        -4.09871800     -2.68215900      1.91922400
| 38> C        -4.03325900      0.52795200     -0.15124800
| 39> C        -4.04674600     -1.76940700     -1.20028100
| 40> C        -2.17452200     -0.23402000     -1.60037900
| 41> H        -4.87955900     -0.45569400      3.03386600
| 42> H        -3.61953200      0.66906800      2.54411700
| 43> C        -5.00624000      0.23142700      0.97954700
| 44> H        -1.71164500     -2.39697200      3.13542200
| 45> H        -1.70597300     -0.64583500      3.32391000
| 46> H        -2.97677200     -1.60523200      4.08497900
| 47> H        -3.50279000     -3.54266500      1.61022700
| 48> H        -4.45714200     -2.88907100      2.93236800
| 49> H        -4.98254600     -2.61520200      1.28474400
| 50> H        -4.56079900      0.86417200     -1.05039400
| 51> H        -3.36864000      1.34687000      0.15485500
| 52> H        -4.72983900     -1.26544700     -1.89217400
| 53> H        -3.44322700     -2.45550000     -1.79827100
| 54> H        -4.65398600     -2.35647700     -0.51693600
| 55> H        -1.69970300      0.70471500     -1.32472400
| 56> H        -1.40777500     -0.98694800     -1.79933300
| 57> H        -2.72088500     -0.06310100     -2.53312500
| 58> H        -5.59903200      1.12265400      1.21111600
| 59> H        -5.71663800     -0.54888600      0.68072200
| 60> H         1.50020800      0.05460900      1.37867300
| 61> C        -0.65942900      0.98644000      1.32824300
| 62> C        -1.27429900      1.89121200      2.23032500
| 63> C        -1.32327400      3.16565200      1.67256500
| 64> H        -1.67435300      1.60151200      3.19305000
| 65> H        -1.75398200      4.06175000      2.09667200
| 66> H         0.33403900     -0.44757600      2.90717100
| 67> C        -0.69516600      3.06707200      0.43004200
| 68> H        -0.49063400      3.83671400     -0.30335100
| 69> N        -0.31043800      1.80120400      0.22301900
| 70> C         0.60422200      1.40296400     -0.83453200
| 71> H         0.35955900      1.94043500     -1.75360800
| 72> H         1.63319900      1.62581000     -0.53966000
| 73> H         0.52414300      0.33126600     -1.00689600
| 74> *
| 75> 
| 76> 
| 77>                          ****END OF INPUT****
================================================================================

                     *******************************
                     * Energy+Gradient Calculation *
                     *******************************

---------------------------------
CARTESIAN COORDINATES (ANGSTROEM)
---------------------------------
  C     -1.318292   -2.055119    0.537090
  C     -0.023698   -1.673317    0.947033
  C      1.000452   -2.612674    0.727752
  C      0.778761   -3.859762    0.156242
  C     -0.512689   -4.215324   -0.227024
  C     -1.551485   -3.312526   -0.034904
  H      2.011508   -2.342009    1.024523
  H      1.603955   -4.551796    0.011185
  H     -0.713793   -5.185083   -0.672705
  H     -2.551106   -3.602588   -0.328500
  H     -1.558624    0.103600    1.047895
  B      0.373318   -0.291503    1.700016
  N     -2.416144   -1.101445    0.730403
  C     -3.267564   -1.383692    1.970177
  C     -3.169015   -0.688948   -0.528075
  C     -4.210798   -0.188754    2.208238
  C     -2.350824   -1.512079    3.192009
  C     -4.098718   -2.682159    1.919224
  C     -4.033259    0.527952   -0.151248
  C     -4.046746   -1.769407   -1.200281
  C     -2.174522   -0.234020   -1.600379
  H     -4.879559   -0.455694    3.033866
  H     -3.619532    0.669068    2.544117
  C     -5.006240    0.231427    0.979547
  H     -1.711645   -2.396972    3.135422
  H     -1.705973   -0.645835    3.323910
  H     -2.976772   -1.605232    4.084979
  H     -3.502790   -3.542665    1.610227
  H     -4.457142   -2.889071    2.932368
  H     -4.982546   -2.615202    1.284744
  H     -4.560799    0.864172   -1.050394
  H     -3.368640    1.346870    0.154855
  H     -4.729839   -1.265447   -1.892174
  H     -3.443227   -2.455500   -1.798271
  H     -4.653986   -2.356477   -0.516936
  H     -1.699703    0.704715   -1.324724
  H     -1.407775   -0.986948   -1.799333
  H     -2.720885   -0.063101   -2.533125
  H     -5.599032    1.122654    1.211116
  H     -5.716638   -0.548886    0.680722
  H      1.500208    0.054609    1.378673
  C     -0.659429    0.986440    1.328243
  C     -1.274299    1.891212    2.230325
  C     -1.323274    3.165652    1.672565
  H     -1.674353    1.601512    3.193050
  H     -1.753982    4.061750    2.096672
  H      0.334039   -0.447576    2.907171
  C     -0.695166    3.067072    0.430042
  H     -0.490634    3.836714   -0.303351
  N     -0.310438    1.801204    0.223019
  C      0.604222    1.402964   -0.834532
  H      0.359559    1.940435   -1.753608
  H      1.633199    1.625810   -0.539660
  H      0.524143    0.331266   -1.006896

----------------------------
CARTESIAN COORDINATES (A.U.)
----------------------------
  NO LB      ZA    FRAG     MASS         X           Y           Z
   0 C     6.0000    0    12.011   -2.491211   -3.883612    1.014953
   1 C     6.0000    0    12.011   -0.044783   -3.162111    1.789633
   2 C     6.0000    0    12.011    1.890580   -4.937238    1.375252
   3 C     6.0000    0    12.011    1.471645   -7.293893    0.295255
   4 C     6.0000    0    12.011   -0.968842   -7.965808   -0.429013
   5 C     6.0000    0    12.011   -2.931882   -6.259767   -0.065959
   6 H     1.0000    0     1.008    3.801199   -4.425756    1.936068
   7 H     1.0000    0     1.008    3.031036   -8.601648    0.021137
   8 H     1.0000    0     1.008   -1.348873   -9.798387   -1.271228
   9 H     1.0000    0     1.008   -4.820892   -6.807905   -0.620775
  10 H     1.0000    0     1.008   -2.945373    0.195776    1.980235
  11 B     5.0000    0    10.810    0.705469   -0.550861    3.212565
  12 N     7.0000    0    14.007   -4.565850   -2.081429    1.380262
  13 C     6.0000    0    12.011   -6.174801   -2.614799    3.723095
  14 C     6.0000    0    12.011   -5.988570   -1.301923   -0.997917
  15 C     6.0000    0    12.011   -7.957255   -0.356693    4.172965
  16 C     6.0000    0    12.011   -4.442414   -2.857415    6.032023
  17 C     6.0000    0    12.011   -7.745455   -5.068546    3.626808
  18 C     6.0000    0    12.011   -7.621755    0.997685   -0.285817
  19 C     6.0000    0    12.011   -7.647242   -3.343695   -2.268202
  20 C     6.0000    0    12.011   -4.109251   -0.442234   -3.024278
  21 H     1.0000    0     1.008   -9.221030   -0.861137    5.733176
  22 H     1.0000    0     1.008   -6.839924    1.264355    4.807684
  23 C     6.0000    0    12.011   -9.460423    0.437334    1.851076
  24 H     1.0000    0     1.008   -3.234540   -4.529621    5.925089
  25 H     1.0000    0     1.008   -3.223822   -1.220451    6.281280
  26 H     1.0000    0     1.008   -5.625284   -3.033449    7.719492
  27 H     1.0000    0     1.008   -6.619314   -6.694667    3.042888
  28 H     1.0000    0     1.008   -8.422778   -5.459553    5.541372
  29 H     1.0000    0     1.008   -9.415647   -4.942016    2.427814
  30 H     1.0000    0     1.008   -8.618661    1.633048   -1.984957
  31 H     1.0000    0     1.008   -6.365807    2.545215    0.292634
  32 H     1.0000    0     1.008   -8.938100   -2.391348   -3.575691
  33 H     1.0000    0     1.008   -6.506756   -4.640223   -3.398240
  34 H     1.0000    0     1.008   -8.794759   -4.453096   -0.976867
  35 H     1.0000    0     1.008   -3.211973    1.331718   -2.503366
  36 H     1.0000    0     1.008   -2.660309   -1.865061   -3.400247
  37 H     1.0000    0     1.008   -5.141727   -0.119244   -4.786913
  38 H     1.0000    0     1.008  -10.580637    2.121509    2.288678
  39 H     1.0000    0     1.008  -10.802880   -1.037244    1.286378
  40 H     1.0000    0     1.008    2.834982    0.103196    2.605314
  41 C     6.0000    0    12.011   -1.246140    1.864101    2.510016
  42 C     6.0000    0    12.011   -2.408076    3.573873    4.214703
  43 C     6.0000    0    12.011   -2.500625    5.982215    3.160690
  44 H     1.0000    0     1.008   -3.164069    3.026419    6.033990
  45 H     1.0000    0     1.008   -3.314546    7.675595    3.962136
  46 H     1.0000    0     1.008    0.631242   -0.845796    5.493757
  47 C     6.0000    0    12.011   -1.313673    5.795926    0.812662
  48 H     1.0000    0     1.008   -0.927164    7.250339   -0.573250
  49 N     7.0000    0    14.007   -0.586643    3.403782    0.421445
  50 C     6.0000    0    12.011    1.141814    2.651218   -1.577037
  51 H     1.0000    0     1.008    0.679468    3.666891   -3.313839
  52 H     1.0000    0     1.008    3.086299    3.072336   -1.019810
  53 H     1.0000    0     1.008    0.990487    0.626002   -1.902758

--------------------------------
INTERNAL COORDINATES (ANGSTROEM)
--------------------------------
 C      0   0   0     0.000000000000     0.00000000     0.00000000
 C      1   0   0     1.410602585879     0.00000000     0.00000000
 C      2   1   0     1.406896923342   116.23594684     0.00000000
 C      3   2   1     1.389603921744   123.17321224   359.28230153
 C      4   3   2     1.393255276358   119.34345126     0.10868178
 C      5   4   3     1.389622773568   119.28053570     0.27819776
 H      3   2   1     1.087918564876   117.89734593   179.38997129
 H      4   3   2     1.086691183382   120.34916747   180.21935096
 H      5   4   3     1.086051053431   120.82397463   180.21669410
 H      6   5   4     1.081469703090   118.63189489   180.51104614
 H      1   2   3     2.231311035963    76.73007936   189.31563734
 B      2   1   3     1.622964889682   126.14189845   182.90067659
 N      1   2   3     1.467018414386   118.20074059   180.73685858
 C     13   1   2     1.530234935062   113.78086679   260.39560935
 C     13   1   2     1.523396006997   115.91316675   121.47096039
 C     14  13   1     1.540856983085   108.82825968   169.80819676
 C     14  13   1     1.532895588614   109.17626547    52.22749931
 C     14  13   1     1.542540025417   115.35970064   292.84541706
 C     15  13   1     1.539403095185   106.81503139   192.72220684
 C     15  13   1     1.545853895256   116.78080056    69.31337954
 C     15  13   1     1.531604283309   109.74900168   308.99972656
 H     16  14  13     1.095518066079   107.52736239   174.24112059
 H     16  14  13     1.094654634614   108.93404381   289.65962601
 C     19  15  13     1.520959050734   112.76944451   301.62207729
 H     17  14  13     1.093063357752   112.10171951   292.97440175
 H     17  14  13     1.087938120271   112.60816878    54.63155032
 H     17  14  13     1.094478780522   108.38618538   173.96021534
 H     18  14  13     1.091366072053   112.26210688    48.87450429
 H     18  14  13     1.094413589214   107.76020614   166.40825107
 H     18  14  13     1.090045890700   113.85391661   284.36083190
 H     19  15  13     1.095356503297   108.18530932   178.17498496
 H     19  15  13     1.098200415450   108.53822564    62.47603003
 H     20  15  13     1.095129057097   107.89400601   163.92853759
 H     20  15  13     1.092039755737   111.31179489   280.71554308
 H     20  15  13     1.086440054271   114.93120698    44.27623275
 H     21  15  13     1.087502718163   111.24961683   290.96840928
 H     21  15  13     1.092878872204   112.23268028    54.10940165
 H     21  15  13     1.094413510903   108.59807579   172.96262091
 H     24  19  15     1.095131098341   110.17125003   180.10881198
 H     24  19  15     1.096745219729   110.51810583   297.67772531
 H     12   2   1     1.221857566287   110.16775735   211.93315099
 C     11   1   2     1.290950469510   129.51728219     9.08950809
 C     42  11   1     1.417896125817   105.81258448   210.98669079
 C     43  42  11     1.392010086826   110.15428017   242.24016392
 H     43  42  11     1.082039148340   123.74816642    60.10142575
 H     44  43  42     1.080910613472   128.01059301   178.10908889
 H     12   2   1     1.217836120008   110.05258545    91.62792086
 C     44  43  42     1.395743916911   106.03377331   358.10224539
 H     48  44  43     1.082611398257   129.63328111   182.50559302
 N     48  44  43     1.339140003860   109.49198752     1.33325369
 C     50  48  44     1.453826719661   123.51405646   193.00546081
 H     51  50  48     1.092444851325   109.65251339   318.16817043
 H     51  50  48     1.093345097684   109.88201276    78.83984743
 H     51  50  48     1.088420230399   109.79312909   197.75281708

---------------------------
INTERNAL COORDINATES (A.U.)
---------------------------
 C      0   0   0     0.000000000000     0.00000000     0.00000000
 C      1   0   0     2.665652571113     0.00000000     0.00000000
 C      2   1   0     2.658649883773   116.23594684     0.00000000
 C      3   2   1     2.625970846718   123.17321224   359.28230153
 C      4   3   2     2.632870906958   119.34345126     0.10868178
 C      5   4   3     2.626006471504   119.28053570     0.27819776
 H      3   2   1     2.055868143624   117.89734593   179.38997129
 H      4   3   2     2.053548728739   120.34916747   180.21935096
 H      5   4   3     2.052339058441   120.82397463   180.21669410
 H      6   5   4     2.043681560973   118.63189489   180.51104614
 H      1   2   3     4.216566777566    76.73007936   189.31563734
 B      2   1   3     3.066959166469   126.14189845   182.90067659
 N      1   2   3     2.772263036610   118.20074059   180.73685858
 C     13   1   2     2.891724947826   113.78086679   260.39560935
 C     13   1   2     2.878801246733   115.91316675   121.47096039
 C     14  13   1     2.911797709570   108.82825968   169.80819676
 C     14  13   1     2.896752854377   109.17626547    52.22749931
 C     14  13   1     2.914978198650   115.35970064   292.84541706
 C     15  13   1     2.909050259610   106.81503139   192.72220684
 C     15  13   1     2.921240505089   116.78080056    69.31337954
 C     15  13   1     2.894312640994   109.74900168   308.99972656
 H     16  14  13     2.070229119652   107.52736239   174.24112059
 H     16  14  13     2.068597470647   108.93404381   289.65962601
 C     19  15  13     2.874196066797   112.76944451   301.62207729
 H     17  14  13     2.065590393175   112.10171951   292.97440175
 H     17  14  13     2.055905097965   112.60816878    54.63155032
 H     17  14  13     2.068265154575   108.38618538   173.96021534
 H     18  14  13     2.062382988034   112.26210688    48.87450429
 H     18  14  13     2.068141960856   107.76020614   166.40825107
 H     18  14  13     2.059888206830   113.85391661   284.36083190
 H     19  15  13     2.069923810242   108.18530932   178.17498496
 H     19  15  13     2.075298025359   108.53822564    62.47603003
 H     20  15  13     2.069493999213   107.89400601   163.92853759
 H     20  15  13     2.063656065697   111.31179489   280.71554308
 H     20  15  13     2.053074163495   114.93120698    44.27623275
 H     21  15  13     2.055082307222   111.24961683   290.96840928
 H     21  15  13     2.065241766014   112.23268028    54.10940165
 H     21  15  13     2.068141812869   108.59807579   172.96262091
 H     24  19  15     2.069497856605   110.17125003   180.10881198
 H     24  19  15     2.072548103975   110.51810583   297.67772531
 H     12   2   1     2.308976174942   110.16775735   211.93315099
 C     11   1   2     2.439542839832   129.51728219     9.08950809
 C     42  11   1     2.679435364143   105.81258448   210.98669079
 C     43  42  11     2.630517839757   110.15428017   242.24016392
 H     43  42  11     2.044757656545   123.74816642    60.10142575
 H     44  43  42     2.042625034711   128.01059301   178.10908889
 H     12   2   1     2.301376742811   110.05258545    91.62792086
 C     44  43  42     2.637573756048   106.03377331   358.10224539
 H     48  44  43     2.045839052168   129.63328111   182.50559302
 N     48  44  43     2.530607862273   109.49198752     1.33325369
 C     50  48  44     2.747334346337   123.51405646   193.00546081
 H     51  50  48     2.064421585416   109.65251339   318.16817043
 H     51  50  48     2.066122804488   109.88201276    78.83984743
 H     51  50  48     2.056816154073   109.79312909   197.75281708

---------------------
BASIS SET INFORMATION
---------------------
There are 4 groups of distinct atoms

 Group   1 Type C   : 10s4p1d contracted to 3s2p1d pattern {631/31/1}
 Group   2 Type H   : 4s1p contracted to 2s1p pattern {31/1}
 Group   3 Type B   : 10s4p1d contracted to 3s2p1d pattern {631/31/1}
 Group   4 Type N   : 10s4p1d contracted to 3s2p1d pattern {631/31/1}

Atom   0C    basis set group =>   1
Atom   1C    basis set group =>   1
Atom   2C    basis set group =>   1
Atom   3C    basis set group =>   1
Atom   4C    basis set group =>   1
Atom   5C    basis set group =>   1
Atom   6H    basis set group =>   2
Atom   7H    basis set group =>   2
Atom   8H    basis set group =>   2
Atom   9H    basis set group =>   2
Atom  10H    basis set group =>   2
Atom  11B    basis set group =>   3
Atom  12N    basis set group =>   4
Atom  13C    basis set group =>   1
Atom  14C    basis set group =>   1
Atom  15C    basis set group =>   1
Atom  16C    basis set group =>   1
Atom  17C    basis set group =>   1
Atom  18C    basis set group =>   1
Atom  19C    basis set group =>   1
Atom  20C    basis set group =>   1
Atom  21H    basis set group =>   2
Atom  22H    basis set group =>   2
Atom  23C    basis set group =>   1
Atom  24H    basis set group =>   2
Atom  25H    basis set group =>   2
Atom  26H    basis set group =>   2
Atom  27H    basis set group =>   2
Atom  28H    basis set group =>   2
Atom  29H    basis set group =>   2
Atom  30H    basis set group =>   2
Atom  31H    basis set group =>   2
Atom  32H    basis set group =>   2
Atom  33H    basis set group =>   2
Atom  34H    basis set group =>   2
Atom  35H    basis set group =>   2
Atom  36H    basis set group =>   2
Atom  37H    basis set group =>   2
Atom  38H    basis set group =>   2
Atom  39H    basis set group =>   2
Atom  40H    basis set group =>   2
Atom  41C    basis set group =>   1
Atom  42C    basis set group =>   1
Atom  43C    basis set group =>   1
Atom  44H    basis set group =>   2
Atom  45H    basis set group =>   2
Atom  46H    basis set group =>   2
Atom  47C    basis set group =>   1
Atom  48H    basis set group =>   2
Atom  49N    basis set group =>   4
Atom  50C    basis set group =>   1
Atom  51H    basis set group =>   2
Atom  52H    basis set group =>   2
Atom  53H    basis set group =>   2
---------------------------------
AUXILIARY/J BASIS SET INFORMATION
---------------------------------
There are 4 groups of distinct atoms

 Group   1 Type C   : 12s5p4d2f1g contracted to 6s4p3d1f1g pattern {711111/2111/211/2/1}
 Group   2 Type H   : 5s2p1d contracted to 3s1p1d pattern {311/2/1}
 Group   3 Type B   : 12s5p4d2f1g contracted to 6s4p3d1f1g pattern {711111/2111/211/2/1}
 Group   4 Type N   : 12s5p4d2f1g contracted to 6s4p3d1f1g pattern {711111/2111/211/2/1}

Atom   0C    basis set group =>   1
Atom   1C    basis set group =>   1
Atom   2C    basis set group =>   1
Atom   3C    basis set group =>   1
Atom   4C    basis set group =>   1
Atom   5C    basis set group =>   1
Atom   6H    basis set group =>   2
Atom   7H    basis set group =>   2
Atom   8H    basis set group =>   2
Atom   9H    basis set group =>   2
Atom  10H    basis set group =>   2
Atom  11B    basis set group =>   3
Atom  12N    basis set group =>   4
Atom  13C    basis set group =>   1
Atom  14C    basis set group =>   1
Atom  15C    basis set group =>   1
Atom  16C    basis set group =>   1
Atom  17C    basis set group =>   1
Atom  18C    basis set group =>   1
Atom  19C    basis set group =>   1
Atom  20C    basis set group =>   1
Atom  21H    basis set group =>   2
Atom  22H    basis set group =>   2
Atom  23C    basis set group =>   1
Atom  24H    basis set group =>   2
Atom  25H    basis set group =>   2
Atom  26H    basis set group =>   2
Atom  27H    basis set group =>   2
Atom  28H    basis set group =>   2
Atom  29H    basis set group =>   2
Atom  30H    basis set group =>   2
Atom  31H    basis set group =>   2
Atom  32H    basis set group =>   2
Atom  33H    basis set group =>   2
Atom  34H    basis set group =>   2
Atom  35H    basis set group =>   2
Atom  36H    basis set group =>   2
Atom  37H    basis set group =>   2
Atom  38H    basis set group =>   2
Atom  39H    basis set group =>   2
Atom  40H    basis set group =>   2
Atom  41C    basis set group =>   1
Atom  42C    basis set group =>   1
Atom  43C    basis set group =>   1
Atom  44H    basis set group =>   2
Atom  45H    basis set group =>   2
Atom  46H    basis set group =>   2
Atom  47C    basis set group =>   1
Atom  48H    basis set group =>   2
Atom  49N    basis set group =>   4
Atom  50C    basis set group =>   1
Atom  51H    basis set group =>   2
Atom  52H    basis set group =>   2
Atom  53H    basis set group =>   2


           ************************************************************
           *        Program running with 24 parallel MPI-processes    *
           *              working on a common directory               *
           ************************************************************
------------------------------------------------------------------------------
                             ORCA STARTUP CALCULATIONS
                           -- RI-GTO INTEGRALS CHOSEN --
------------------------------------------------------------------------------
------------------------------------------------------------------------------
                   ___                                                        
                  /   \      - P O W E R E D   B Y -                         
                 /     \                                                     
                 |  |  |   _    _      __       _____    __    __             
                 |  |  |  | |  | |    /  \     |  _  \  |  |  /  |          
                  \  \/   | |  | |   /    \    | | | |  |  | /  /          
                 / \  \   | |__| |  /  /\  \   | |_| |  |  |/  /          
                |  |  |   |  __  | /  /__\  \  |    /   |      \           
                |  |  |   | |  | | |   __   |  |    \   |  |\   \          
                \     /   | |  | | |  |  |  |  | |\  \  |  | \   \       
                 \___/    |_|  |_| |__|  |__|  |_| \__\ |__|  \__/        
                                                                              
                      - O R C A' S   B I G   F R I E N D -                    
                                      &                                       
                       - I N T E G R A L  F E E D E R -                       
                                                                              
 v1 FN, 2020, v2 2021, v3 2022-2024                                           
------------------------------------------------------------------------------


----------------------
SHARK INTEGRAL PACKAGE
----------------------

Number of atoms                             ...     54
Number of basis functions                   ...    477
Number of shells                            ...    231
Maximum angular momentum                    ...      2
Integral batch strategy                     ... SHARK/LIBINT Hybrid
RI-J (if used) integral strategy            ... SPLIT-RIJ (Revised 2003 algorithm where possible)
Printlevel                                  ...      1
Contraction scheme used                     ... SEGMENTED contraction
Prescreening option                         ... SCHWARTZ
   Thresh                                   ... 2.500e-11
   Tcut                                     ... 2.500e-12
   Tpresel                                  ... 2.500e-12 
Coulomb Range Separation                    ... NOT USED
Exchange Range Separation                   ... Long Range
   Mu parameter                             ... 2.500e-01
   Scaling (regular/separated)              ... 1.957e-01 8.043e-01
Multipole approximations                    ... NOT USED
Finite Nucleus Model                        ... NOT USED
CABS basis                                  ... NOT available
Auxiliary Coulomb fitting basis             ... AVAILABLE
   # of basis functions in Aux-J            ...   1468
   # of shells in Aux-J                     ...    500
   Maximum angular momentum in Aux-J        ...      4
Auxiliary J/K fitting basis                 ... NOT available
Auxiliary Correlation fitting basis         ... NOT available
Auxiliary 'external' fitting basis          ... NOT available

Checking pre-screening integrals            ... done (  0.0 sec) Dimension = 231
Check shell pair data                       ... done (  0.0 sec)
Shell pair information
Shell pair cut-off parameter TPreSel        ...   2.5e-12
Total number of shell pairs                 ...     26796
Shell pairs after pre-screening             ...     21019
Total number of primitive shell pairs       ...    125826
Primitive shell pairs kept                  ...     57436
          la=0 lb=0:   6950 shell pairs
          la=1 lb=0:   7936 shell pairs
          la=1 lb=1:   2327 shell pairs
          la=2 lb=0:   2290 shell pairs
          la=2 lb=1:   1310 shell pairs
          la=2 lb=2:    206 shell pairs

Calculating one electron integrals          ... done (  0.0 sec)
Calculating RI/J V-Matrix + Cholesky decomp.... done (  0.2 sec)
Calculating Nuclear repulsion               ... done (  0.0 sec) ENN=   2159.232391121892 Eh

Diagonalization of the overlap matrix:
Smallest eigenvalue                        ... 4.310e-04
Time for diagonalization                   ...    0.031 sec
Threshold for overlap eigenvalues          ... 1.000e-07
Number of eigenvalues below threshold      ... 0
Time for construction of square roots      ...    0.033 sec
Total time needed                          ...    0.069 sec

-------------------
DFT GRID GENERATION
-------------------

General Integration Accuracy     IntAcc      ... 4.388
Radial Grid Type                 RadialGrid  ... OptM3 with GC (2021)
Angular Grid (max. ang.)         AngularGrid ... 4 (Lebedev-302)
Angular grid pruning method      GridPruning ... 4 (adaptive)
Weight generation scheme         WeightScheme... mBecke (2022)
Basis function cutoff            BFCut       ... 1.0000e-11
Integration weight cutoff        WCut        ... 1.0000e-14
Partially contracted basis set               ... off
Rotationally invariant grid construction     ... off
Angular grids for H and He will be reduced by one unit

Total number of grid points                  ...   232273
Total number of batches                      ...     3659
Average number of points per batch           ...       63
Average number of grid points per atom       ...     4301

--------------------
COSX GRID GENERATION
--------------------

GRIDX 1
-------
General Integration Accuracy     IntAcc      ... 3.816
Radial Grid Type                 RadialGrid  ... OptM3 with GC (2021)
Angular Grid (max. ang.)         AngularGrid ... 1 (Lebedev-50)
Angular grid pruning method      GridPruning ... 4 (adaptive)
Weight generation scheme         WeightScheme... mBecke (2022)
Basis function cutoff            BFCut       ... 1.0000e-11
Integration weight cutoff        WCut        ... 1.0000e-14
Partially contracted basis set               ... on
Rotationally invariant grid construction     ... off
Angular grids for H and He will be reduced by one unit

Total number of grid points                  ...    29478
Total number of batches                      ...      261
Average number of points per batch           ...      112
Average number of grid points per atom       ...      546
UseSFitting                                  ... on

GRIDX 2
-------
General Integration Accuracy     IntAcc      ... 4.020
Radial Grid Type                 RadialGrid  ... OptM3 with GC (2021)
Angular Grid (max. ang.)         AngularGrid ... 2 (Lebedev-110)
Angular grid pruning method      GridPruning ... 4 (adaptive)
Weight generation scheme         WeightScheme... mBecke (2022)
Basis function cutoff            BFCut       ... 1.0000e-11
Integration weight cutoff        WCut        ... 1.0000e-14
Partially contracted basis set               ... on
Rotationally invariant grid construction     ... off
Angular grids for H and He will be reduced by one unit

Total number of grid points                  ...    61295
Total number of batches                      ...      510
Average number of points per batch           ...      120
Average number of grid points per atom       ...     1135
UseSFitting                                  ... on

GRIDX 3
-------
General Integration Accuracy     IntAcc      ... 4.338
Radial Grid Type                 RadialGrid  ... OptM3 with GC (2021)
Angular Grid (max. ang.)         AngularGrid ... 3 (Lebedev-194)
Angular grid pruning method      GridPruning ... 4 (adaptive)
Weight generation scheme         WeightScheme... mBecke (2022)
Basis function cutoff            BFCut       ... 1.0000e-11
Integration weight cutoff        WCut        ... 1.0000e-14
Partially contracted basis set               ... on
Rotationally invariant grid construction     ... off
Angular grids for H and He will be reduced by one unit

Total number of grid points                  ...   132740
Total number of batches                      ...     1064
Average number of points per batch           ...      124
Average number of grid points per atom       ...     2458
UseSFitting                                  ... on
Initializing property integral containers    ... done (  0.1 sec)

SHARK setup successfully completed in   3.8 seconds

Maximum memory used throughout the entire STARTUP-calculation: 69.1 MB


           ************************************************************
           *        Program running with 24 parallel MPI-processes    *
           *              working on a common directory               *
           ************************************************************
-------------------------------------------------------------------------------
                                 ORCA GUESS
                   Start orbitals & Density for SCF / CASSCF
-------------------------------------------------------------------------------

------------
SCF SETTINGS
------------
Hamiltonian:
 Density Functional     Method          .... DFT(GTOs)
 Exchange Functional    Exchange        .... WB97X-D3
 Correlation Functional Correlation     .... WB97X-D3
 Gradients option       PostSCFGGA      .... off
 Hybrid DFT is turned on
   Fraction HF Exchange ScalHFX         ....  0.195728
   Scaling of DF-GGA-X  ScalDFX         ....  0.000000
   Scaling of DF-GGA-C  ScalDFC         ....  1.000000
   Scaling of DF-LDA-C  ScalLDAC        ....  1.000000
   Perturbative correction              ....  0.000000
 Long-range corrected/Screened/Range-Separated Hybrid DFT is turned on
   Amount of maximum screened exact exchange              ....  0.804272
   Range separation parameter mu (erf(mu*r12)/r12)        ....  0.250000
 RI-approximation to the Coulomb term is turned on
   Number of AuxJ basis functions       .... 1468
   RIJ-COSX (HFX calculated with COS-X)).... on


General Settings:
 Integral files         IntName         .... input
 Hartree-Fock type      HFTyp           .... RHF
 Total Charge           Charge          ....    0
 Multiplicity           Mult            ....    1
 Number of Electrons    NEL             ....  170
 Basis Dimension        Dim             ....  477
 Nuclear Repulsion      ENuc            ....   2159.2323911219 Eh

Convergence Acceleration:
 AO-DIIS                CNVDIIS         .... on
   Start iteration      DIISMaxIt       ....    12
   Startup error        DIISStart       ....  0.200000
   # of expansion vecs  DIISMaxEq       ....     5
   Bias factor          DIISBfac        ....   1.050
   Max. coefficient     DIISMaxC        ....  10.000
 MO-DIIS                CNVKDIIS        .... off
 Trust-Rad. Augm. Hess. CNVTRAH         .... auto
   Auto Start mean grad. ratio tolernc. ....  1.125000
   Auto Start start iteration           ....    50
   Auto Start num. interpolation iter.  ....    10
   Max. Number of Micro iterations      ....    24
   Max. Number of Macro iterations      .... Maxiter - #DIIS iter
   Number of Davidson start vectors     ....     2
   Converg. threshold    (grad. norm)   ....   1.000e-05
   Grad. Scal. Fac. for Micro threshold ....   0.100
   Minimum threshold for Micro iter.    ....   1.000e-02
   NR start threshold (gradient norm)   ....   1.000e-04
   Initial trust radius                 ....   0.400
   Minimum AH scaling param. (alpha)    ....   1.000
   Maximum AH scaling param. (alpha)    .... 1000.000
   Quad. conv. algorithm                .... NR
   White noise on init. David. guess    .... on
   Maximum white noise                  ....   0.010
   Pseudo random numbers                .... off
   Inactive MOs                         .... canonical
   Orbital update algorithm             .... Taylor
   Preconditioner                       .... Diag
   Full preconditioner red. dimension   ....   250
 SOSCF                  CNVSOSCF        .... on
   Start iteration      SOSCFMaxIt      ....   150
   Startup grad/error   SOSCFStart      ....  0.003300
   Hessian update       SOSCFHessUp     .... L-BFGS
 Level Shifting         CNVShift        .... on
   Level shift para.    LevelShift      ....    0.2500
   Turn off err/grad.   ShiftErr        ....    0.0010
 Zerner damping         CNVZerner       .... off
 Static damping         CNVDamp         .... on
   Fraction old density DampFac         ....    0.7000
   Max. Damping (<1)    DampMax         ....    0.9800
   Min. Damping (>=0)   DampMin         ....    0.0000
   Turn off err/grad.   DampErr         ....    0.1000

SCF Procedure:
 Maximum # iterations   MaxIter         ....   125
 SCF integral mode      SCFMode         .... Direct
   Integral package                     .... SHARK and LIBINT hybrid scheme
 Reset frequency        DirectResetFreq ....    20
 Integral Threshold     Thresh          ....  2.500e-11 Eh
 Primitive CutOff       TCut            ....  2.500e-12 Eh

Convergence Tolerance:
 Convergence Check Mode ConvCheckMode   .... Total+1el-Energy
 Convergence forced     ConvForced      .... 0
 Energy Change          TolE            ....  1.000e-08 Eh
 1-El. energy change                    ....  1.000e-05 Eh
 Orbital Gradient       TolG            ....  1.000e-05
 Orbital Rotation angle TolX            ....  1.000e-05
 DIIS Error             TolErr          ....  5.000e-07

------------------------------
INITIAL GUESS: MODEL POTENTIAL
------------------------------
Loading Hartree-Fock densities                     ... done
Calculating cut-offs                               ... done
Initializing the effective Hamiltonian             ... done
Setting up the integral package (SHARK)            ... done
Starting the Coulomb interaction                   ... done (   0.2 sec)
Making the grid                                    ... done (   0.3 sec)
Mapping shells                                     ... done
Starting the XC term evaluation                    ... done (   0.1 sec)
  promolecular density results
     # of electrons  =    169.985215309
     EX              =   -128.431165666
     EC              =     -5.699521894
     EX+EC           =   -134.130687561
Transforming the Hamiltonian                       ... done (   0.0 sec)
Diagonalizing the Hamiltonian                      ... done (   0.0 sec)
Back transforming the eigenvectors                 ... done (   0.1 sec)
Now organizing SCF variables                       ... done
                      ------------------
                      INITIAL GUESS DONE (   0.8 sec)
                      ------------------
             **** ENERGY FILE WAS UPDATED (input.en.tmp) ****
Finished Guess after   1.2 sec
Maximum memory used throughout the entire GUESS-calculation: 44.1 MB


           ************************************************************
           *        Program running with 24 parallel MPI-processes    *
           *              working on a common directory               *
           ************************************************************

-------------------------------------------------------------------------------------------
                                      ORCA LEAN-SCF
                              memory conserving SCF solver
-------------------------------------------------------------------------------------------

----------------------------------------D-I-I-S--------------------------------------------
Iteration    Energy (Eh)           Delta-E    RMSDP     MaxDP     DIISErr   Damp  Time(sec)
-------------------------------------------------------------------------------------------
               ***  Starting incremental Fock matrix formation  ***
    1    -914.2976868669070427     0.00e+00  1.35e-03  5.21e-02  1.54e-01  0.700   6.1
    2    -914.5226203620431988    -2.25e-01  1.07e-03  5.05e-02  9.29e-02  0.700   3.8
                               ***Turning on AO-DIIS***
    3    -914.6449237748615815    -1.22e-01  5.69e-04  2.67e-02  4.90e-02  0.700   3.2
    4    -914.7180768202538275    -7.32e-02  1.22e-03  5.05e-02  3.06e-02  0.000   2.9
    5    -914.8729261259991290    -1.55e-01  1.07e-04  4.53e-03  4.36e-03  0.000   3.2
                              *** Initializing SOSCF ***
---------------------------------------S-O-S-C-F--------------------------------------
Iteration    Energy (Eh)           Delta-E    RMSDP     MaxDP     MaxGrad    Time(sec)
--------------------------------------------------------------------------------------
    6    -914.8732464086951950    -3.20e-04  5.58e-05  2.16e-03  1.65e-03     2.7
               *** Restarting incremental Fock matrix formation ***
    7    -914.8731944102219131     5.20e-05  3.47e-05  1.28e-03  8.25e-04     6.2
    8    -914.8732171059959910    -2.27e-05  3.87e-05  1.50e-03  4.31e-04     4.9
    9    -914.8732229077090778    -5.80e-06  1.35e-05  4.48e-04  1.87e-04     4.3
   10    -914.8732247964007911    -1.89e-06  3.16e-06  1.25e-04  4.74e-05     4.0
   11    -914.8732248344122127    -3.80e-08  1.33e-06  5.84e-05  2.75e-05     3.1
   12    -914.8732249123163456    -7.79e-08  4.41e-07  1.61e-05  5.95e-06     3.0
   13    -914.8732249052036423     7.11e-09  1.92e-07  8.06e-06  4.88e-06     2.4
                 **** Energy Check signals convergence ****

               *****************************************************
               *                     SUCCESS                       *
               *           SCF CONVERGED AFTER  13 CYCLES          *
               *****************************************************

Recomputing exchange energy using gridx3       ... done (   10.993 sec)
Old exchange energy                            :    -43.966987056 Eh
New exchange energy                            :    -43.967029699 Eh
Exchange energy change after final integration :     -0.000042643 Eh
Total energy after final integration           :   -914.873267548 Eh
             **** ENERGY FILE WAS UPDATED (input.en.tmp) ****

----------------
TOTAL SCF ENERGY
----------------

Total Energy       :       -914.87326754787921 Eh          -24894.96725 eV

Components:
Nuclear Repulsion  :       2159.23239112189185 Eh           58755.70044 eV
Electronic Energy  :      -3074.10561602709549 Eh          -83650.66653 eV
One Electron Energy:      -5529.52042181975685 Eh         -150465.90022 eV
Two Electron Energy:       2455.41480579266135 Eh           66815.23369 eV

Virial components:
Potential Energy   :      -1823.20145033404060 Eh          -49611.83368 eV
Kinetic Energy     :        908.32818278616139 Eh           24716.86643 eV
Virial Ratio       :          2.00720563876114

DFT components:
N(Alpha)           :       85.000073971886 electrons
N(Beta)            :       85.000073971886 electrons
N(Total)           :      170.000147943772 electrons
E(XC)              :      -94.057940155672 Eh       

---------------
SCF CONVERGENCE
---------------

  Last Energy change         ...   -7.1127e-09  Tolerance :   1.0000e-08
  Last MAX-Density change    ...    8.0561e-06  Tolerance :   1.0000e-07
  Last RMS-Density change    ...    1.9159e-07  Tolerance :   5.0000e-09
  Last DIIS Error            ...    1.6530e-03  Tolerance :   5.0000e-07
  Last Orbital Gradient      ...    4.8776e-06  Tolerance :   1.0000e-05
  Last Orbital Rotation      ...    9.3803e-06  Tolerance :   1.0000e-05


----------------
ORBITAL ENERGIES
----------------

  NO   OCC          E(Eh)            E(eV) 
   0   2.0000     -14.496063      -394.4579 
   1   2.0000     -14.466148      -393.6439 
   2   2.0000     -10.338037      -281.3123 
   3   2.0000     -10.334624      -281.2194 
   4   2.0000     -10.330832      -281.1162 
   5   2.0000     -10.322655      -280.8937 
   6   2.0000     -10.302931      -280.3570 
   7   2.0000     -10.291403      -280.0433 
   8   2.0000     -10.285085      -279.8714 
   9   2.0000     -10.284025      -279.8425 
  10   2.0000     -10.282648      -279.8051 
  11   2.0000     -10.282570      -279.8030 
  12   2.0000     -10.282103      -279.7902 
  13   2.0000     -10.278680      -279.6971 
  14   2.0000     -10.274823      -279.5922 
  15   2.0000     -10.274617      -279.5865 
  16   2.0000     -10.273505      -279.5563 
  17   2.0000     -10.270834      -279.4836 
  18   2.0000     -10.268622      -279.4234 
  19   2.0000     -10.262206      -279.2488 
  20   2.0000     -10.259213      -279.1674 
  21   2.0000     -10.246000      -278.8078 
  22   2.0000      -6.749967      -183.6759 
  23   2.0000      -1.110171       -30.2093 
  24   2.0000      -1.057221       -28.7685 
  25   2.0000      -0.951529       -25.8924 
  26   2.0000      -0.932899       -25.3855 
  27   2.0000      -0.925370       -25.1806 
  28   2.0000      -0.918146       -24.9840 
  29   2.0000      -0.863747       -23.5038 
  30   2.0000      -0.848426       -23.0868 
  31   2.0000      -0.834235       -22.7007 
  32   2.0000      -0.822261       -22.3749 
  33   2.0000      -0.810502       -22.0549 
  34   2.0000      -0.805950       -21.9310 
  35   2.0000      -0.796024       -21.6609 
  36   2.0000      -0.790930       -21.5223 
  37   2.0000      -0.727393       -19.7934 
  38   2.0000      -0.700604       -19.0644 
  39   2.0000      -0.687365       -18.7041 
  40   2.0000      -0.686292       -18.6750 
  41   2.0000      -0.681669       -18.5492 
  42   2.0000      -0.665453       -18.1079 
  43   2.0000      -0.642141       -17.4735 
  44   2.0000      -0.628138       -17.0925 
  45   2.0000      -0.609333       -16.5808 
  46   2.0000      -0.585372       -15.9288 
  47   2.0000      -0.579351       -15.7649 
  48   2.0000      -0.575962       -15.6727 
  49   2.0000      -0.566905       -15.4263 
  50   2.0000      -0.561683       -15.2842 
  51   2.0000      -0.543239       -14.7823 
  52   2.0000      -0.540176       -14.6989 
  53   2.0000      -0.532303       -14.4847 
  54   2.0000      -0.525470       -14.2988 
  55   2.0000      -0.520463       -14.1625 
  56   2.0000      -0.517377       -14.0785 
  57   2.0000      -0.516992       -14.0681 
  58   2.0000      -0.509600       -13.8669 
  59   2.0000      -0.499516       -13.5925 
  60   2.0000      -0.493331       -13.4242 
  61   2.0000      -0.490756       -13.3541 
  62   2.0000      -0.490277       -13.3411 
  63   2.0000      -0.478388       -13.0176 
  64   2.0000      -0.472175       -12.8485 
  65   2.0000      -0.470642       -12.8068 
  66   2.0000      -0.460760       -12.5379 
  67   2.0000      -0.459664       -12.5081 
  68   2.0000      -0.454158       -12.3583 
  69   2.0000      -0.448998       -12.2179 
  70   2.0000      -0.446398       -12.1471 
  71   2.0000      -0.440754       -11.9935 
  72   2.0000      -0.437381       -11.9017 
  73   2.0000      -0.421275       -11.4635 
  74   2.0000      -0.417685       -11.3658 
  75   2.0000      -0.414258       -11.2725 
  76   2.0000      -0.402644       -10.9565 
  77   2.0000      -0.386222       -10.5096 
  78   2.0000      -0.363453        -9.8901 
  79   2.0000      -0.360085        -9.7984 
  80   2.0000      -0.349253        -9.5037 
  81   2.0000      -0.332964        -9.0604 
  82   2.0000      -0.313314        -8.5257 
  83   2.0000      -0.290237        -7.8978 
  84   2.0000      -0.284956        -7.7540 
  85   0.0000       0.047395         1.2897 
  86   0.0000       0.089461         2.4344 
  87   0.0000       0.095897         2.6095 
  88   0.0000       0.141890         3.8610 
  89   0.0000       0.157789         4.2937 
  90   0.0000       0.178100         4.8464 
  91   0.0000       0.183789         5.0012 
  92   0.0000       0.188423         5.1273 
  93   0.0000       0.193401         5.2627 
  94   0.0000       0.197532         5.3751 
  95   0.0000       0.203337         5.5331 
*Only the first 10 virtual orbitals were printed.

                    ********************************
                    * MULLIKEN POPULATION ANALYSIS *
                    ********************************

-----------------------
MULLIKEN ATOMIC CHARGES
-----------------------
   0 C :    0.135738
   1 C :    0.036184
   2 C :   -0.180268
   3 C :   -0.102079
   4 C :   -0.154456
   5 C :   -0.103690
   6 H :    0.109904
   7 H :    0.109883
   8 H :    0.109807
   9 H :    0.099343
  10 H :    0.264684
  11 B :    0.074882
  12 N :   -0.586950
  13 C :    0.146938
  14 C :    0.156464
  15 C :   -0.196308
  16 C :   -0.332948
  17 C :   -0.342628
  18 C :   -0.198096
  19 C :   -0.346417
  20 C :   -0.344517
  21 H :    0.113034
  22 H :    0.106713
  23 C :   -0.226912
  24 H :    0.144157
  25 H :    0.129222
  26 H :    0.106867
  27 H :    0.132527
  28 H :    0.119487
  29 H :    0.109106
  30 H :    0.109197
  31 H :    0.117552
  32 H :    0.116829
  33 H :    0.129826
  34 H :    0.113392
  35 H :    0.113999
  36 H :    0.139929
  37 H :    0.117126
  38 H :    0.121281
  39 H :    0.106902
  40 H :   -0.148950
  41 C :   -0.074401
  42 C :   -0.100624
  43 C :   -0.190497
  44 H :    0.134514
  45 H :    0.127920
  46 H :   -0.114839
  47 C :    0.075537
  48 H :    0.145038
  49 N :   -0.375200
  50 C :   -0.219383
  51 H :    0.130006
  52 H :    0.167578
  53 H :    0.167599
Sum of atomic charges:   -0.0000000

--------------------------------
MULLIKEN REDUCED ORBITAL CHARGES
--------------------------------
  0 C s       :     3.111740  s :     3.111740
      pz      :     1.024514  p :     2.699372
      px      :     0.826192
      py      :     0.848665
      dz2     :     0.005810  d :     0.053151
      dxz     :     0.007113
      dyz     :     0.006396
      dx2y2   :     0.016400
      dxy     :     0.017431

  1 C s       :     3.225671  s :     3.225671
      pz      :     0.882004  p :     2.705009
      px      :     0.848655
      py      :     0.974351
      dz2     :     0.004567  d :     0.033136
      dxz     :     0.006614
      dyz     :     0.003635
      dx2y2   :     0.007972
      dxy     :     0.010349

  2 C s       :     3.196053  s :     3.196053
      pz      :     0.981904  p :     2.948394
      px      :     1.023268
      py      :     0.943222
      dz2     :     0.003727  d :     0.035821
      dxz     :     0.004245
      dyz     :     0.005803
      dx2y2   :     0.012752
      dxy     :     0.009294

  3 C s       :     3.158648  s :     3.158648
      pz      :     0.981069  p :     2.908042
      px      :     0.956191
      py      :     0.970782
      dz2     :     0.004549  d :     0.035389
      dxz     :     0.005282
      dyz     :     0.004539
      dx2y2   :     0.008897
      dxy     :     0.012122

  4 C s       :     3.165823  s :     3.165823
      pz      :     1.014706  p :     2.953532
      px      :     0.934628
      py      :     1.004198
      dz2     :     0.002842  d :     0.035102
      dxz     :     0.006965
      dyz     :     0.004401
      dx2y2   :     0.010993
      dxy     :     0.009900

  5 C s       :     3.153196  s :     3.153196
      pz      :     0.998894  p :     2.915832
      px      :     0.976850
      py      :     0.940089
      dz2     :     0.003998  d :     0.034662
      dxz     :     0.004389
      dyz     :     0.006243
      dx2y2   :     0.011295
      dxy     :     0.008736

  6 H s       :     0.877932  s :     0.877932
      pz      :     0.002909  p :     0.012164
      px      :     0.006874
      py      :     0.002380

  7 H s       :     0.877962  s :     0.877962
      pz      :     0.002579  p :     0.012154
      px      :     0.005269
      py      :     0.004307

  8 H s       :     0.877900  s :     0.877900
      pz      :     0.003581  p :     0.012293
      px      :     0.002051
      py      :     0.006662

  9 H s       :     0.887620  s :     0.887620
      pz      :     0.003244  p :     0.013038
      px      :     0.007372
      py      :     0.002422

 10 H s       :     0.710893  s :     0.710893
      pz      :     0.002212  p :     0.024423
      px      :     0.010538
      py      :     0.011673

 11 B s       :     2.782772  s :     2.782772
      pz      :     0.796411  p :     2.094486
      px      :     0.675692
      py      :     0.622383
      dz2     :     0.012169  d :     0.047860
      dxz     :     0.004580
      dyz     :     0.008732
      dx2y2   :     0.010368
      dxy     :     0.012012

 12 N s       :     3.668121  s :     3.668121
      pz      :     1.165340  p :     3.882039
      px      :     1.253520
      py      :     1.463179
      dz2     :     0.008248  d :     0.036790
      dxz     :     0.010796
      dyz     :     0.005306
      dx2y2   :     0.004365
      dxy     :     0.008075

 13 C s       :     3.160337  s :     3.160337
      pz      :     0.818497  p :     2.634007
      px      :     0.889977
      py      :     0.925534
      dz2     :     0.012922  d :     0.058718
      dxz     :     0.015397
      dyz     :     0.007867
      dx2y2   :     0.008048
      dxy     :     0.014483

 14 C s       :     3.156465  s :     3.156465
      pz      :     0.809239  p :     2.628092
      px      :     0.897999
      py      :     0.920855
      dz2     :     0.010445  d :     0.058979
      dxz     :     0.016104
      dyz     :     0.012071
      dx2y2   :     0.007444
      dxy     :     0.012915

 15 C s       :     3.213431  s :     3.213431
      pz      :     0.980407  p :     2.945489
      px      :     0.988203
      py      :     0.976878
      dz2     :     0.006776  d :     0.037388
      dxz     :     0.010287
      dyz     :     0.005612
      dx2y2   :     0.004124
      dxy     :     0.010590

 16 C s       :     3.242101  s :     3.242101
      pz      :     0.953782  p :     3.060315
      px      :     1.009385
      py      :     1.097149
      dz2     :     0.007008  d :     0.030531
      dxz     :     0.009092
      dyz     :     0.001792
      dx2y2   :     0.002531
      dxy     :     0.010108

 17 C s       :     3.239771  s :     3.239771
      pz      :     1.061495  p :     3.072320
      px      :     1.019831
      py      :     0.990994
      dz2     :     0.006526  d :     0.030538
      dxz     :     0.007894
      dyz     :     0.002712
      dx2y2   :     0.005647
      dxy     :     0.007758

 18 C s       :     3.216178  s :     3.216178
      pz      :     0.993356  p :     2.944334
      px      :     0.984367
      py      :     0.966611
      dz2     :     0.007280  d :     0.037583
      dxz     :     0.009776
      dyz     :     0.005595
      dx2y2   :     0.004006
      dxy     :     0.010926

 19 C s       :     3.241419  s :     3.241419
      pz      :     1.041655  p :     3.074507
      px      :     1.022861
      py      :     1.009991
      dz2     :     0.001231  d :     0.030491
      dxz     :     0.009072
      dyz     :     0.008993
      dx2y2   :     0.001922
      dxy     :     0.009273

 20 C s       :     3.237520  s :     3.237520
      pz      :     0.996606  p :     3.076369
      px      :     1.023114
      py      :     1.056649
      dz2     :     0.006396  d :     0.030628
      dxz     :     0.008327
      dyz     :     0.003277
      dx2y2   :     0.002992
      dxy     :     0.009635

 21 H s       :     0.875514  s :     0.875514
      pz      :     0.004980  p :     0.011453
      px      :     0.004018
      py      :     0.002455

 22 H s       :     0.881520  s :     0.881520
      pz      :     0.002654  p :     0.011768
      px      :     0.003834
      py      :     0.005280

 23 C s       :     3.215648  s :     3.215648
      pz      :     0.945333  p :     2.972982
      px      :     0.977821
      py      :     1.049829
      dz2     :     0.008393  d :     0.038282
      dxz     :     0.009905
      dyz     :     0.005459
      dx2y2   :     0.002609
      dxy     :     0.011916

 24 H s       :     0.844066  s :     0.844066
      pz      :     0.002196  p :     0.011777
      px      :     0.004139
      py      :     0.005442

 25 H s       :     0.858277  s :     0.858277
      pz      :     0.002194  p :     0.012501
      px      :     0.004900
      py      :     0.005407

 26 H s       :     0.881518  s :     0.881518
      pz      :     0.005483  p :     0.011615
      px      :     0.003693
      py      :     0.002439

 27 H s       :     0.855482  s :     0.855482
      pz      :     0.002829  p :     0.011991
      px      :     0.003936
      py      :     0.005227

 28 H s       :     0.868869  s :     0.868869
      pz      :     0.006435  p :     0.011644
      px      :     0.002789
      py      :     0.002420

 29 H s       :     0.878810  s :     0.878810
      pz      :     0.004292  p :     0.012084
      px      :     0.005560
      py      :     0.002232

 30 H s       :     0.879395  s :     0.879395
      pz      :     0.005448  p :     0.011407
      px      :     0.003317
      py      :     0.002642

 31 H s       :     0.870714  s :     0.870714
      pz      :     0.002572  p :     0.011734
      px      :     0.004150
      py      :     0.005011

 32 H s       :     0.871559  s :     0.871559
      pz      :     0.004229  p :     0.011612
      px      :     0.004185
      py      :     0.003197

 33 H s       :     0.858340  s :     0.858340
      pz      :     0.003816  p :     0.011834
      px      :     0.003863
      py      :     0.004155

 34 H s       :     0.874225  s :     0.874225
      pz      :     0.004699  p :     0.012383
      px      :     0.003880
      py      :     0.003805

 35 H s       :     0.873583  s :     0.873583
      pz      :     0.002745  p :     0.012418
      px      :     0.003336
      py      :     0.006337

 36 H s       :     0.848131  s :     0.848131
      pz      :     0.002387  p :     0.011940
      px      :     0.004746
      py      :     0.004806

 37 H s       :     0.871262  s :     0.871262
      pz      :     0.005764  p :     0.011611
      px      :     0.003356
      py      :     0.002492

 38 H s       :     0.867371  s :     0.867371
      pz      :     0.002347  p :     0.011349
      px      :     0.003574
      py      :     0.005428

 39 H s       :     0.881555  s :     0.881555
      pz      :     0.002493  p :     0.011542
      px      :     0.004228
      py      :     0.004821

 40 H s       :     1.143102  s :     1.143102
      pz      :     0.001091  p :     0.005848
      px      :     0.003804
      py      :     0.000953

 41 C s       :     3.199190  s :     3.199190
      pz      :     0.797904  p :     2.826790
      px      :     1.050206
      py      :     0.978680
      dz2     :     0.011237  d :     0.048421
      dxz     :     0.007506
      dyz     :     0.016020
      dx2y2   :     0.006381
      dxy     :     0.007276

 42 C s       :     3.189481  s :     3.189481
      pz      :     0.972878  p :     2.874180
      px      :     0.975852
      py      :     0.925450
      dz2     :     0.007448  d :     0.036963
      dxz     :     0.005225
      dyz     :     0.010866
      dx2y2   :     0.005607
      dxy     :     0.007817

 43 C s       :     3.166202  s :     3.166202
      pz      :     0.948418  p :     2.990039
      px      :     1.058759
      py      :     0.982862
      dz2     :     0.008489  d :     0.034255
      dxz     :     0.005514
      dyz     :     0.007979
      dx2y2   :     0.006282
      dxy     :     0.005992

 44 H s       :     0.852754  s :     0.852754
      pz      :     0.006940  p :     0.012732
      px      :     0.003317
      py      :     0.002476

 45 H s       :     0.859291  s :     0.859291
      pz      :     0.002978  p :     0.012789
      px      :     0.003736
      py      :     0.006076

 46 H s       :     1.108864  s :     1.108864
      pz      :     0.004124  p :     0.005976
      px      :     0.000982
      py      :     0.000870

 47 C s       :     3.093801  s :     3.093801
      pz      :     0.992208  p :     2.777459
      px      :     0.962985
      py      :     0.822265
      dz2     :     0.010803  d :     0.053203
      dxz     :     0.005105
      dyz     :     0.015907
      dx2y2   :     0.011162
      dxy     :     0.010226

 48 H s       :     0.842599  s :     0.842599
      pz      :     0.004726  p :     0.012363
      px      :     0.002721
      py      :     0.004915

 49 N s       :     3.542539  s :     3.542539
      pz      :     1.275360  p :     3.785037
      px      :     1.346186
      py      :     1.163490
      dz2     :     0.010018  d :     0.047625
      dxz     :     0.007454
      dyz     :     0.011162
      dx2y2   :     0.008394
      dxy     :     0.010597

 50 C s       :     3.210999  s :     3.210999
      pz      :     0.894688  p :     2.964707
      px      :     0.978077
      py      :     1.091942
      dz2     :     0.009531  d :     0.043677
      dxz     :     0.010788
      dyz     :     0.007571
      dx2y2   :     0.012084
      dxy     :     0.003702

 51 H s       :     0.858854  s :     0.858854
      pz      :     0.005769  p :     0.011141
      px      :     0.002081
      py      :     0.003291

 52 H s       :     0.821300  s :     0.821300
      pz      :     0.002159  p :     0.011122
      px      :     0.006633
      py      :     0.002330

 53 H s       :     0.820707  s :     0.820707
      pz      :     0.001924  p :     0.011695
      px      :     0.001876
      py      :     0.007895



                     *******************************
                     * LOEWDIN POPULATION ANALYSIS *
                     *******************************

----------------------
LOEWDIN ATOMIC CHARGES
----------------------
   0 C :   -0.004386
   1 C :   -0.024334
   2 C :   -0.069532
   3 C :   -0.083127
   4 C :   -0.098733
   5 C :   -0.102317
   6 H :    0.078667
   7 H :    0.074896
   8 H :    0.074207
   9 H :    0.073832
  10 H :    0.214783
  11 B :   -0.405458
  12 N :   -0.081545
  13 C :    0.039977
  14 C :    0.037167
  15 C :   -0.126395
  16 C :   -0.198136
  17 C :   -0.211930
  18 C :   -0.125365
  19 C :   -0.214676
  20 C :   -0.204534
  21 H :    0.074681
  22 H :    0.072389
  23 C :   -0.134143
  24 H :    0.087748
  25 H :    0.083361
  26 H :    0.072980
  27 H :    0.082506
  28 H :    0.078873
  29 H :    0.066057
  30 H :    0.071770
  31 H :    0.075500
  32 H :    0.077114
  33 H :    0.078802
  34 H :    0.072027
  35 H :    0.074791
  36 H :    0.083589
  37 H :    0.077602
  38 H :    0.076241
  39 H :    0.065853
  40 H :   -0.024581
  41 C :   -0.079121
  42 C :   -0.044341
  43 C :   -0.149861
  44 H :    0.082299
  45 H :    0.081631
  46 H :   -0.011939
  47 C :   -0.020243
  48 H :    0.082935
  49 N :    0.046312
  50 C :   -0.113081
  51 H :    0.077679
  52 H :    0.092079
  53 H :    0.099429

-------------------------------
LOEWDIN REDUCED ORBITAL CHARGES
-------------------------------
  0 C s       :     2.859290  s :     2.859290
      pz      :     1.030499  p :     3.014028
      px      :     0.983613
      py      :     0.999916
      dz2     :     0.012443  d :     0.131068
      dxz     :     0.015943
      dyz     :     0.015187
      dx2y2   :     0.042268
      dxy     :     0.045226

  1 C s       :     2.902636  s :     2.902636
      pz      :     0.920382  p :     3.040699
      px      :     1.029217
      py      :     1.091100
      dz2     :     0.009604  d :     0.080999
      dxz     :     0.015291
      dyz     :     0.006908
      dx2y2   :     0.022391
      dxy     :     0.026805

  2 C s       :     2.893621  s :     2.893621
      pz      :     0.985480  p :     3.090724
      px      :     1.061880
      py      :     1.043364
      dz2     :     0.007229  d :     0.085187
      dxz     :     0.008675
      dyz     :     0.013747
      dx2y2   :     0.031114
      dxy     :     0.024421

  3 C s       :     2.895444  s :     2.895444
      pz      :     0.990298  p :     3.102035
      px      :     1.056148
      py      :     1.055589
      dz2     :     0.009046  d :     0.085649
      dxz     :     0.012194
      dyz     :     0.010617
      dx2y2   :     0.023950
      dxy     :     0.029842

  4 C s       :     2.891489  s :     2.891489
      pz      :     1.011256  p :     3.122207
      px      :     1.064093
      py      :     1.046858
      dz2     :     0.005908  d :     0.085038
      dxz     :     0.016005
      dyz     :     0.008210
      dx2y2   :     0.028434
      dxy     :     0.026480

  5 C s       :     2.895259  s :     2.895259
      pz      :     1.012283  p :     3.122031
      px      :     1.059444
      py      :     1.050304
      dz2     :     0.008245  d :     0.085027
      dxz     :     0.009139
      dyz     :     0.014883
      dx2y2   :     0.028907
      dxy     :     0.023853

  6 H s       :     0.881280  s :     0.881280
      pz      :     0.009046  p :     0.040052
      px      :     0.023571
      py      :     0.007436

  7 H s       :     0.885210  s :     0.885210
      pz      :     0.007722  p :     0.039894
      px      :     0.017739
      py      :     0.014433

  8 H s       :     0.885698  s :     0.885698
      pz      :     0.011148  p :     0.040095
      px      :     0.006657
      py      :     0.022291

  9 H s       :     0.883743  s :     0.883743
      pz      :     0.010000  p :     0.042424
      px      :     0.024256
      py      :     0.008168

 10 H s       :     0.701001  s :     0.701001
      pz      :     0.005769  p :     0.084215
      px      :     0.035318
      py      :     0.043128

 11 B s       :     2.742180  s :     2.742180
      pz      :     0.930095  p :     2.544110
      px      :     0.847096
      py      :     0.766918
      dz2     :     0.030413  d :     0.119167
      dxz     :     0.009425
      dyz     :     0.020971
      dx2y2   :     0.027143
      dxy     :     0.031215

 12 N s       :     3.154551  s :     3.154551
      pz      :     1.179252  p :     3.842572
      px      :     1.235987
      py      :     1.427333
      dz2     :     0.019131  d :     0.084422
      dxz     :     0.025722
      dyz     :     0.011786
      dx2y2   :     0.009507
      dxy     :     0.018275

 13 C s       :     2.864252  s :     2.864252
      pz      :     0.933395  p :     2.961078
      px      :     0.995454
      py      :     1.032229
      dz2     :     0.030067  d :     0.134693
      dxz     :     0.036434
      dyz     :     0.016393
      dx2y2   :     0.016612
      dxy     :     0.035187

 14 C s       :     2.862228  s :     2.862228
      pz      :     0.937760  p :     2.965262
      px      :     1.005854
      py      :     1.021648
      dz2     :     0.023296  d :     0.135343
      dxz     :     0.039039
      dyz     :     0.027091
      dx2y2   :     0.015279
      dxy     :     0.030638

 15 C s       :     2.890785  s :     2.890785
      pz      :     1.050186  p :     3.153806
      px      :     1.054864
      py      :     1.048756
      dz2     :     0.015054  d :     0.081804
      dxz     :     0.022141
      dyz     :     0.012080
      dx2y2   :     0.008477
      dxy     :     0.024051

 16 C s       :     2.911162  s :     2.911162
      pz      :     1.037993  p :     3.224228
      px      :     1.070605
      py      :     1.115630
      dz2     :     0.014563  d :     0.062745
      dxz     :     0.020179
      dyz     :     0.003610
      dx2y2   :     0.004955
      dxy     :     0.019438

 17 C s       :     2.915113  s :     2.915113
      pz      :     1.099340  p :     3.234324
      px      :     1.077172
      py      :     1.057811
[...]
freq.     383.41  E(vib)   ...       0.20 
freq.     405.01  E(vib)   ...       0.19 
freq.     410.68  E(vib)   ...       0.19 
freq.     416.86  E(vib)   ...       0.18 
freq.     448.46  E(vib)   ...       0.17 
freq.     472.42  E(vib)   ...       0.15 
freq.     496.48  E(vib)   ...       0.14 
freq.     504.51  E(vib)   ...       0.14 
freq.     536.45  E(vib)   ...       0.12 
freq.     567.46  E(vib)   ...       0.11 
freq.     579.83  E(vib)   ...       0.11 
freq.     592.00  E(vib)   ...       0.10 
freq.     603.95  E(vib)   ...       0.10 
freq.     614.70  E(vib)   ...       0.10 
freq.     662.57  E(vib)   ...       0.08 
freq.     698.54  E(vib)   ...       0.07 
freq.     714.77  E(vib)   ...       0.07 
freq.     745.17  E(vib)   ...       0.06 
freq.     757.59  E(vib)   ...       0.06 
freq.     775.67  E(vib)   ...       0.05 
freq.     788.06  E(vib)   ...       0.05 
freq.     811.67  E(vib)   ...       0.05 
freq.     813.06  E(vib)   ...       0.05 
freq.     834.48  E(vib)   ...       0.04 
freq.     839.00  E(vib)   ...       0.04 
freq.     878.06  E(vib)   ...       0.04 
freq.     893.51  E(vib)   ...       0.03 
freq.     896.16  E(vib)   ...       0.03 
freq.     903.34  E(vib)   ...       0.03 
freq.     918.08  E(vib)   ...       0.03 
freq.     931.87  E(vib)   ...       0.03 
freq.     939.94  E(vib)   ...       0.03 
freq.     949.32  E(vib)   ...       0.03 
freq.     951.17  E(vib)   ...       0.03 
freq.     954.13  E(vib)   ...       0.03 
freq.     979.44  E(vib)   ...       0.03 
freq.     982.89  E(vib)   ...       0.02 
freq.    1000.48  E(vib)   ...       0.02 
freq.    1004.23  E(vib)   ...       0.02 
freq.    1021.55  E(vib)   ...       0.02 
freq.    1024.33  E(vib)   ...       0.02 
freq.    1030.33  E(vib)   ...       0.02 
freq.    1034.80  E(vib)   ...       0.02 
freq.    1036.08  E(vib)   ...       0.02 
freq.    1052.08  E(vib)   ...       0.02 
freq.    1079.06  E(vib)   ...       0.02 
freq.    1082.53  E(vib)   ...       0.02 
freq.    1094.55  E(vib)   ...       0.02 
freq.    1098.40  E(vib)   ...       0.02 
freq.    1122.37  E(vib)   ...       0.01 
freq.    1123.27  E(vib)   ...       0.01 
freq.    1130.95  E(vib)   ...       0.01 
freq.    1150.03  E(vib)   ...       0.01 
freq.    1164.23  E(vib)   ...       0.01 
freq.    1168.33  E(vib)   ...       0.01 
freq.    1185.22  E(vib)   ...       0.01 
freq.    1191.38  E(vib)   ...       0.01 
freq.    1204.62  E(vib)   ...       0.01 
freq.    1219.49  E(vib)   ...       0.01 
freq.    1227.68  E(vib)   ...       0.01 
freq.    1239.63  E(vib)   ...       0.01 
freq.    1247.58  E(vib)   ...       0.01 
freq.    1261.03  E(vib)   ...       0.01 
freq.    1268.88  E(vib)   ...       0.01 
freq.    1272.62  E(vib)   ...       0.01 
freq.    1294.20  E(vib)   ...       0.01 
freq.    1300.18  E(vib)   ...       0.01 
freq.    1305.74  E(vib)   ...       0.01 
freq.    1319.70  E(vib)   ...       0.01 
freq.    1335.29  E(vib)   ...       0.01 
freq.    1351.03  E(vib)   ...       0.01 
freq.    1387.03  E(vib)   ...       0.00 
freq.    1394.14  E(vib)   ...       0.00 
freq.    1411.21  E(vib)   ...       0.00 
freq.    1414.01  E(vib)   ...       0.00 
freq.    1419.66  E(vib)   ...       0.00 
freq.    1427.86  E(vib)   ...       0.00 
freq.    1434.53  E(vib)   ...       0.00 
freq.    1442.84  E(vib)   ...       0.00 
freq.    1450.63  E(vib)   ...       0.00 
freq.    1468.22  E(vib)   ...       0.00 
freq.    1486.55  E(vib)   ...       0.00 
freq.    1486.87  E(vib)   ...       0.00 
freq.    1492.77  E(vib)   ...       0.00 
freq.    1495.49  E(vib)   ...       0.00 
freq.    1497.34  E(vib)   ...       0.00 
freq.    1501.84  E(vib)   ...       0.00 
freq.    1502.80  E(vib)   ...       0.00 
freq.    1506.86  E(vib)   ...       0.00 
freq.    1513.14  E(vib)   ...       0.00 
freq.    1515.73  E(vib)   ...       0.00 
freq.    1519.11  E(vib)   ...       0.00 
freq.    1519.79  E(vib)   ...       0.00 
freq.    1524.93  E(vib)   ...       0.00 
freq.    1531.43  E(vib)   ...       0.00 
freq.    1540.32  E(vib)   ...       0.00 
freq.    1542.63  E(vib)   ...       0.00 
freq.    1549.30  E(vib)   ...       0.00 
freq.    1609.96  E(vib)   ...       0.00 
freq.    1648.16  E(vib)   ...       0.00 
freq.    1682.95  E(vib)   ...       0.00 
freq.    2428.11  E(vib)   ...       0.00 
freq.    2481.57  E(vib)   ...       0.00 
freq.    3059.81  E(vib)   ...       0.00 
freq.    3073.55  E(vib)   ...       0.00 
freq.    3083.17  E(vib)   ...       0.00 
freq.    3083.74  E(vib)   ...       0.00 
freq.    3085.26  E(vib)   ...       0.00 
freq.    3085.90  E(vib)   ...       0.00 
freq.    3087.80  E(vib)   ...       0.00 
freq.    3093.00  E(vib)   ...       0.00 
freq.    3122.54  E(vib)   ...       0.00 
freq.    3126.87  E(vib)   ...       0.00 
freq.    3148.37  E(vib)   ...       0.00 
freq.    3163.05  E(vib)   ...       0.00 
freq.    3164.98  E(vib)   ...       0.00 
freq.    3165.54  E(vib)   ...       0.00 
freq.    3168.60  E(vib)   ...       0.00 
freq.    3170.00  E(vib)   ...       0.00 
freq.    3198.78  E(vib)   ...       0.00 
freq.    3202.67  E(vib)   ...       0.00 
freq.    3213.35  E(vib)   ...       0.00 
freq.    3220.93  E(vib)   ...       0.00 
freq.    3229.69  E(vib)   ...       0.00 
freq.    3230.78  E(vib)   ...       0.00 
freq.    3232.00  E(vib)   ...       0.00 
freq.    3243.21  E(vib)   ...       0.00 
freq.    3271.90  E(vib)   ...       0.00 
freq.    3278.03  E(vib)   ...       0.00 
freq.    3282.98  E(vib)   ...       0.00 
freq.    3302.41  E(vib)   ...       0.00 

------------
INNER ENERGY
------------

The inner energy is: U= E(el) + E(ZPE) + E(vib) + E(rot) + E(trans)
    E(el)   - is the total energy from the electronic structure calculation
              = E(kin-el) + E(nuc-el) + E(el-el) + E(nuc-nuc)
    E(ZPE)  - the the zero temperature vibrational energy from the frequency calculation
    E(vib)  - the the finite temperature correction to E(ZPE) due to population
              of excited vibrational states
    E(rot)  - is the rotational thermal energy
    E(trans)- is the translational thermal energy

Summary of contributions to the inner energy U:
Electronic energy                ...   -914.91150759 Eh
Zero point energy                ...      0.47894426 Eh     300.54 kcal/mol
Thermal vibrational correction   ...      0.01864804 Eh      11.70 kcal/mol
Thermal rotational correction    ...      0.00141627 Eh       0.89 kcal/mol
Thermal translational correction ...      0.00141627 Eh       0.89 kcal/mol
-----------------------------------------------------------------------
Total thermal energy                   -914.41108276 Eh


Summary of corrections to the electronic energy:
(perhaps to be used in another calculation)
Total thermal correction                  0.02148058 Eh      13.48 kcal/mol
Non-thermal (ZPE) correction              0.47894426 Eh     300.54 kcal/mol
-----------------------------------------------------------------------
Total correction                          0.50042484 Eh     314.02 kcal/mol


--------
ENTHALPY
--------

The enthalpy is H = U + kB*T
                kB is Boltzmann's constant
Total thermal energy              ...   -914.41108276 Eh 
Thermal Enthalpy correction       ...      0.00094421 Eh       0.59 kcal/mol
-----------------------------------------------------------------------
Total Enthalpy                    ...   -914.41013855 Eh


Note: Only C1 symmetry has been detected, increase convergence thresholds 
      if your molecule has a higher symmetry. Symmetry factor of 1.0 is   
      used for the rotational entropy correction. 
 

Note: Rotational entropy computed according to Herzberg 
Infrared and Raman Spectra, Chapter V,1, Van Nostrand Reinhold, 1945 
Point Group:  C1, Symmetry Number:   1  
Rotational constants in cm-1:     0.011190     0.009494     0.007225 

Vibrational entropy computed according to the QRRHO of S. Grimme
Chem.Eur.J. 2012 18 9955 using a reference frequency of 100.0 cm-1


-------
ENTROPY
-------

The entropy contributions are T*S = T*(S(el)+S(vib)+S(rot)+S(trans))
     S(el)   - electronic entropy
     S(vib)  - vibrational entropy
     S(rot)  - rotational entropy
     S(trans)- translational entropy
The entropies will be listed as multiplied by the temperature to get
units of energy

Electronic entropy                ...      0.00000000 Eh      0.00 kcal/mol
Vibrational entropy               ...      0.03124753 Eh     19.61 kcal/mol
Rotational entropy                ...      0.01615790 Eh     10.14 kcal/mol
Translational entropy             ...      0.02047495 Eh     12.85 kcal/mol
-----------------------------------------------------------------------
Final entropy term                ...      0.06788037 Eh     42.60 kcal/mol

In case the symmetry of your molecule has not been determined correctly
or in case you have a reason to use a different symmetry number we print 
out the resulting rotational entropy values for sn=1,12:

 non-linear molecules -----------------------------------
|  sn= 1 | S(rot)=       0.01615790 Eh     10.14 kcal/mol|
|  sn= 2 | S(rot)=       0.01550344 Eh      9.73 kcal/mol|
|  sn= 3 | S(rot)=       0.01512061 Eh      9.49 kcal/mol|
|  sn= 4 | S(rot)=       0.01484898 Eh      9.32 kcal/mol|
|  sn= 5 | S(rot)=       0.01463830 Eh      9.19 kcal/mol|
|  sn= 6 | S(rot)=       0.01446615 Eh      9.08 kcal/mol|
|  sn= 7 | S(rot)=       0.01432061 Eh      8.99 kcal/mol|
|  sn= 8 | S(rot)=       0.01419453 Eh      8.91 kcal/mol|
|  sn= 9 | S(rot)=       0.01408332 Eh      8.84 kcal/mol|
|  sn=10 | S(rot)=       0.01398384 Eh      8.77 kcal/mol|
|  sn=11 | S(rot)=       0.01389385 Eh      8.72 kcal/mol|
|  sn=12 | S(rot)=       0.01381170 Eh      8.67 kcal/mol|
 linear molecules ---------------------------------------
|  Dinfh | S(rot)=       0.00998084 Eh      6.26 kcal/mol|
|  Cinfv | S(rot)=       0.01063530 Eh      6.67 kcal/mol|
 --------------------------------------------------------


-------------------
GIBBS FREE ENERGY
-------------------

The Gibbs free energy is G = H - T*S

Total enthalpy                    ...   -914.41013855 Eh 
Total entropy correction          ...     -0.06788037 Eh    -42.60 kcal/mol
-----------------------------------------------------------------------
Final Gibbs free energy         ...   -914.47801892 Eh

For completeness - the Gibbs free energy minus the electronic energy
G-E(el)                           ...      0.43348867 Eh    272.02 kcal/mol


Reading the hessian file           ...... done
Determining length of initial displacement:
  Requested energy change (quadratic behavior): 2.000 mEh
  Resulting scaling factor for initial displacement along normalized TS mode: 0.3370

         *************************************************************
         *                          FORWARD IRC                      *
         *************************************************************

Iteration    E(Eh)      dE(kcal/mol)  max(|G|)   RMS(G) 
Convergence thresholds                0.002000  0.000500            
    0      -914.910651    0.537456    0.021545  0.003173
    1      -914.912352   -0.529993    0.004520  0.000947
    2      -914.912457   -0.595840    0.002696  0.000633
    3      -914.912551   -0.654547    0.002286  0.000509
    4      -914.912618   -0.696641    0.001700  0.000412

                      ***********************HURRAY********************
                      ***            THE IRC HAS CONVERGED          ***
                      *************************************************


         *************************************************************
         *                          BACKWARD IRC                     *
         *************************************************************

Iteration    E(Eh)      dE(kcal/mol)  max(|G|)   RMS(G) 
Convergence thresholds                0.002000  0.000500            
    0      -914.914586   -1.931647    0.015575  0.002415
    1      -914.919276   -4.874826    0.024066  0.002910
    2      -914.924640   -8.240444    0.023195  0.002791
    3      -914.929140   -11.064497    0.013885  0.002173
    4      -914.932032   -12.879532    0.009350  0.001375
    5      -914.933821   -14.002087    0.003787  0.000902
    6      -914.935048   -14.771882    0.004105  0.001033
    7      -914.935223   -14.881643    0.002906  0.000758
    8      -914.935425   -15.008650    0.002921  0.000708
    9      -914.935686   -15.171964    0.002574  0.000596
   10      -914.935962   -15.345094    0.002366  0.000570
   11      -914.936222   -15.508733    0.002419  0.000541
   12      -914.936471   -15.664459    0.002244  0.000512
   13      -914.936707   -15.812971    0.002176  0.000490
   14      -914.936931   -15.953428    0.002054  0.000465
   15      -914.937144   -16.086955    0.001938  0.000440

                      ***********************HURRAY********************
                      ***            THE IRC HAS CONVERGED          ***
                      *************************************************


---------------------------------------------------------------
                       IRC PATH SUMMARY              
---------------------------------------------------------------
All gradients are in Eh/Bohr.

Step        E(Eh)      dE(kcal/mol)  max(|G|)   RMS(G) 
   1      -914.937144   -16.086955    0.001938  0.000440
   2      -914.936931   -15.953428    0.002054  0.000465
   3      -914.936707   -15.812971    0.002176  0.000490
   4      -914.936471   -15.664459    0.002244  0.000512
   5      -914.936222   -15.508733    0.002419  0.000541
   6      -914.935962   -15.345094    0.002366  0.000570
   7      -914.935686   -15.171964    0.002574  0.000596
   8      -914.935425   -15.008650    0.002921  0.000708
   9      -914.935223   -14.881643    0.002906  0.000758
  10      -914.935048   -14.771882    0.004105  0.001033
  11      -914.933821   -14.002087    0.003787  0.000902
  12      -914.932032   -12.879532    0.009350  0.001375
  13      -914.929140   -11.064497    0.013885  0.002173
  14      -914.924640   -8.240444    0.023195  0.002791
  15      -914.919276   -4.874826    0.024066  0.002910
  16      -914.914586   -1.931647    0.015575  0.002415
  17      -914.911508    0.000000    0.002825  0.000765 <= TS
  18      -914.910651    0.537456    0.021545  0.003173
  19      -914.912352   -0.529993    0.004520  0.000947
  20      -914.912457   -0.595840    0.002696  0.000633
  21      -914.912551   -0.654547    0.002286  0.000509
  22      -914.912618   -0.696641    0.001700  0.000412

--------------------------------
SUGGESTED CITATIONS FOR THIS RUN
--------------------------------

Below you find a list of papers that are relevant to this ORCA run
We neither can nor want to force you to cite these papers, but we appreciate if you do
You receive ORCA, which is the product of decades of hard work by many enthusiastic individuals, for free
The only thing we kindly ask in return is that you cite our papers,
We deeply appreciate it, if you show your appreciation for ORCA by not just citing the generic ORCA reference.

Please note that relegating all ORCA citations to the supporting information does *not* help us.
SI sections are not indexed - citations you put there will not count into any citation statistics
But we need these citations in order to attract the funding resources that allow us to do what we are doing

Therefore, if you are a happy ORCA user, please consider citing a few of the papers listed below in the main body of your paper

In addition to the list printed below, the program has created the file input.bibtex that contains the list in bibtex format
You can import this file easily into all common literature databanks and citation aid programs


List of essential papers. We consider these as the minimum necessary citations

  1. Neese,F.
     Software update: the ORCA program system, version 5.0
     WIRES Comput. Molec. Sci., 2022 12(1)e1606
     doi.org/10.1002/wcms.1606

List of papers to cite with high priority. The work reported in these papers was absolutely
necessary for this run to complete.
Our perspective: the developers of density functionals and basis sets usually get cited in chemistry papers
Good! But without the algorithms to do something with them, the functionals or basis sets would not do anything.
Hence, in our opinion, the algorithm design and method developments papers are equally worthy of getting cited

  1. Neese,F.
     An improvement of the resolution of the identity approximation for the formation of the Coulomb matrix
     J. Comp. Chem., 2003 24(14)1740-1747
     doi.org/10.1002/jcc.10318
  2. Neese,F.; Wennmohs,F.; Hansen,A.; Becker,U.
     Efficient, approximate and parallel Hartree-Fock and hybrid DFT calculations. A 'chain-of-spheres' algorithm for the Hartree-Fock exchange
     Chem. Phys., 2009 356(1-3)98-109
     doi.org/10.1016/j.chemphys.2008.10.036
  3. Bykov,D.; Petrenko,T.; Izsak,R.; Kossmann,S.; Becker,U.; Valeev,E.; Neese,F.
     Efficient implementation of the analytic second derivatives of Hartree-Fock and hybrid DFT energies: a detailed analysis of different approximations
     Molec. Phys., 2015 113 1961-1977
     doi.org/10.1080/00268976.2015.1025114
  4. Helmich-Paris,B.; de Souza,B.; Neese,F.; Izsák,R.
     An improved chain of spheres for exchange algorithm
     J. Chem. Phys., 2021 155 104109
     doi.org/doi: 10.1063/5.0058766.
  5. Neese,F.
     The SHARK Integral Generation and Digestion System
     J. Comp. Chem., 2022  1-16
     doi.org/10.1002/jcc.26942
  6. Grimme,S.; Antony,J.; Ehrlich,S.; Krieg,H.
     A consistent and accurate ab initio parametrization of density functional dispersion correction (DFT-D) for the 94 elements H-Pu
     J. Chem. Phys., 2010 132 154104
     doi.org/10.1063/1.3382344

List of suggested additional citations. These are papers that are important in the 'surrounding' of 
of this run, or papers that preceded the highly important papers. If you like your results we are grateful for a citation.

  1. Izsak,R.; Neese,F.
     An overlap fitted chain of spheres exchange method
     J. Chem. Phys., 2011 135 144105
     doi.org/10.1063/1.3646921
  2. Izsak,R.; Hansen,A.; Neese,F.
     The resolution of identity and chain of spheres approximations for the LPNO-CCSD singles Fock term
     Molec. Phys., 2012 110 2413-2417
     doi.org/10.1080/00268976.2012.687466
  3. Neese,F.
     The ORCA program system
     WIRES Comput. Molec. Sci., 2012 2(1)73-78
     doi.org/10.1002/wcms.81
  4. Izsak,R.; Neese,F.; Klopper,W.
     Robust fitting techniques in the chain of spheres approximation to the Fock exchange: The role of the complementary space
     J. Chem. Phys., 2013 139 
     doi.org/10.1063/1.4819264
  5. Neese,F.
     Software update: the ORCA program system, version 4.0
     WIRES Comput. Molec. Sci., 2018 8(1)1-6
     doi.org/10.1002/wcms.1327
  6. Neese,F.; Wennmohs,F.; Becker,U.; Riplinger,C.
     The ORCA quantum chemistry program package
     J. Chem. Phys., 2020 152 Art. No. L224108
     doi.org/10.1063/5.0004608

List of optional additional citations

  1. Neese,F.
     Approximate second-order SCF convergence for spin unrestricted wavefunctions
     Chem. Phys. Lett., 2000 325(1-3)93-98
     doi.org/10.1016/s0009-2614(00)00662-x

Timings for individual modules:

Sum of individual times          ...    12678.131 sec (= 211.302 min)
Startup calculation              ...      429.484 sec (=   7.158 min)   3.4 %
SCF iterations                   ...     4141.430 sec (=  69.024 min)  32.7 %
Property calculations            ...        0.593 sec (=   0.010 min)   0.0 %
SCF Gradient evaluation          ...      781.660 sec (=  13.028 min)   6.2 %
Numerical frequency calculation  ...     7324.964 sec (= 122.083 min)  57.8 %
                             ****ORCA TERMINATED NORMALLY****
TOTAL RUN TIME: 0 days 3 hours 30 minutes 11 seconds 299 msec
