
                                 *****************
                                 * O   R   C   A *
                                 *****************

                                            #,                                       
                                            ###                                      
                                            ####                                     
                                            #####                                    
                                            ######                                   
                                           ########,                                 
                                     ,,################,,,,,                         
                               ,,#################################,,                 
                          ,,##########################################,,             
                       ,#########################################, ''#####,          
                    ,#############################################,,   '####,        
                  ,##################################################,,,,####,       
                ,###########''''           ''''###############################       
              ,#####''   ,,,,##########,,,,          '''####'''          '####       
            ,##' ,,,,###########################,,,                        '##       
           ' ,,###''''                  '''############,,,                           
         ,,##''                                '''############,,,,        ,,,,,,###''
      ,#''                                            '''#######################'''  
     '                                                          ''''####''''         
             ,#######,   #######,   ,#######,      ##                                
            ,#'     '#,  ##    ##  ,#'     '#,    #''#        ,####,    ,#,          
            ##       ##  ##   ,#'  ##            #'  '#       #'       ,# #          
            ##       ##  #######   ##           ,######,      #####,      #          
            '#,     ,#'  ##    ##  '#,     ,#' ,#      #,     #,   #      #          
             '#######'   ##     ##  '#######'  #'      '#     '####' #    #          



                #########################################################
                #                        -***-                          #
                #          Department of theory and spectroscopy        #
                #                                                       #
                #                      Frank Neese                      #
                #                                                       #
                #     Directorship, Architecture, Infrastructure        #
                #                    SHARK, DRIVERS                     #
                #        Core code/Algorithms in most modules           #
                #                                                       #
                #        Max Planck Institute fuer Kohlenforschung      #
                #                Kaiser Wilhelm Platz 1                 #
                #                 D-45470 Muelheim/Ruhr                 #
                #                      Germany                          #
                #                                                       #
                #                  All rights reserved                  #
                #                        -***-                          #
                #########################################################


                         Program Version 6.1.0  -  RELEASE   -
                                (GIT: $679e74b$)
                          ($2025-06-10 18:02:51 +0200$)


 With contributions from (in alphabetic order):
[Max-Planck-Institut fuer Kohlenforschung]                               
  Daniel Aravena         : Magnetic Suceptibility                        
  Michael Atanasov       : Ab Initio Ligand Field Theory (pilot matlab implementation)
  Alexander A. Auer      : GIAO ZORA, VPT2 properties, NMR spectrum      
  Ute Becker             : All parallelization in ORCA, NUMFREQ, NUMCALC 
  Giovanni Bistoni       : ED, misc. LED, open-shell LED, HFLD           
  Dmytro Bykov           : pre 5.0 version of the SCF Hessian            
  Marcos Casanova-Páez   : Triplet and SCS-CIS(D). UHF-(DLPNO)-IP/EA/STEOM-CCSD. UHF-CVS-IP/STEOM-CCSD   
  Vijay G. Chilkuri      : MRCI spin determinant printing, contributions to CSF-ICE 
  Pauline Colinet        : FMM embedding                                 
  Dipayan Datta          : RHF DLPNO-CCSD density                        
  Achintya Kumar Dutta   : EOM-CC, STEOM-CC                              
  Nicolas Foglia         : Exact transition moments, OPA infrastructure, MCD improvements    
  Dmitry Ganyushin       : Spin-Orbit,Spin-Spin,Magnetic field MRCI      
  Miquel Garcia-Rates    : C-PCM and meta-GGA Hessian, CCSD/C-PCM, Gaussian charge scheme 
  Tiago L. C. Gouveia    : GS-ROHF, GS-ROCIS                             
  Yang Guo               : DLPNO-NEVPT2, F12-NEVPT2, CIM, IAO-localization        
  Andreas Hansen         : Spin unrestricted coupled pair/coupled cluster methods 
  Ingolf Harden          : AUTO-CI MPn and infrastructure                
  Benjamin Helmich-Paris : MC-RPA, TRAH-(SCF,CASSCF), AVAS, COSX integrals, SCF dyn. polar., MC-PDFT, srDFT 
  Lee Huntington         : MR-EOM, pCC                                   
  Robert Izsak           : Overlap fitted RIJCOSX, COSX-SCS-MP3, EOM     
  Riya Kayal             : Wick's Theorem for AUTO-CI, AUTO-CI UHF-CCSDT 
  Emily Kempfer          : AUTO-CI RHF CISDT and CCSDT, approximate NEVPT4
  Christian Kollmar      : KDIIS, OOCD, Brueckner-CCSD(T), CCSD density, CASPT2, CASPT2-K, improved NEVPT2 
  Axel Koslowski         : Symmetry handling                             
  Simone Kossmann        : meta-GGA functionals, TD-DFT gradient, OOMP2, (MP2 Hessian; deprecated post 5.0) 
  Lucas Lang             : DCDCAS, Hyperfine gauge corrections, ICE-SOC+SSC
  Marvin Lechner         : AUTO-CI (C++ implementation), FIC-MRCC        
  Spencer Leger          : CASSCF response                               
  Dagmar Lenk            : GEPOL surface, SMD, ORCA-2-JSON               
  Dimitrios Liakos       : Extrapolation schemes; Compound Job, Property file
  Dimitrios Manganas     : Further ROCIS development; embedding schemes. LFT, Crystal Embedding 
  Dimitrios Pantazis     : SARC Basis sets                               
  Anastasios Papadopoulos: AUTO-CI, single reference methods and gradients 
  Taras Petrenko         : pre 6.0 DFT Hessian and TD-DFT gradient,  ECA, NRVS 
  Petra Pikulova         : Analytic Raman intensities                    
  Peter Pinski           : DLPNO-MP2, DLPNO-MP2 Gradient                 
  Shashank Vittal Rao    : ES-AILFT, MagRelax                            
  Christoph Reimann      : Effective Core Potentials                     
  Marius Retegan         : Local ZFS, SOC                                
  Christoph Riplinger    : Optimizer, TS searches, QM/MM, DLPNO-CCSD(T), (RO)-DLPNO pert. Triples 
  Michael Roemelt        : Original ROCIS implementation, recursive CI coupling coefficients
  Masaaki Saitow         : Open-shell DLPNO-CCSD energy and density      
  Barbara Sandhoefer     : DKH picture change effects                    
  Yorick L. A. Schmerwitz: GMF and freeze-and-release deltaSCF, NEB S-IDPP initial path                    
  Kantharuban Sivalingam : CASSCF convergence/infrastructure, NEVPT2, NEVPT3, NEVPT4(SD), FIC-MRCI and CEPA variants
  Bernardo de Souza      : ESD, SOC TD-DFT                               
  Georgi L. Stoychev     : AutoAux, RI-MP2 NMR, DLPNO-MP2 response, X2C  
  Van Anh Tran           : RI-MP2 g-tensors                              
  Willem Van den Heuvel  : Paramagnetic NMR                              
  Zikuan Wang            : NOTCH, Electric field optimization            
  Frank Wennmohs         : Technical directorship and infrastructure     
  Hang Xu                : AUTO-CI-Response properties                   
                                                                         
[FACCTs GmbH]                                                            
  Markus Bursch, Nicolas Foglia, Miquel Garcia-Rates, Ingolf Harden, Hagen Neugebauer, Anastasios Papadopoulos, 
  Christoph Riplinger, Bernardo de Souza, Georgi L. Stoychev                                                    
                                                                 
  APM, various basis sets, CI-OPT, improved COSX, DLPNO-Multilevel,           
  DOCKER, DRACO, updates on ESD, Fragmentator, GOAT, IRC, LR-CPCM, L-BFGS, MBIS, meta-GGA TD-DFT gradient, ML-optimized integration grids, 
  MM, NACMEs, nearIR, NEB, NEB-TS, NL-DFT gradient (VV10), 2- and 3-layer-ONIOM, interface openCOSMO-RS, QMMM,   
  Crystal-QMMM, RESP, rigid body optimization, SF, symmetry and pop. for TD-DFT, various functionals, SOLVATOR                                   
                                                                         
[Other institutions]                                                     
  V. Asgeirsson          : NEB                                           
  Christoph Bannwarth    : sTDA-DFT, sTD-DFT, PBEh-3c, B97-3c, D3        
  Giovanni Bistoni       : ETS/NOCV, ADLD/ADEX, COVALED                  
  Martin Brehm           : Molecular dynamics                            
  Ronald Cardenas        : ETS/NOCV                                      
  Martina Colucci        : COVALED                                       
  Sebastian Ehlert       : rSCAN, r2SCAN, r2SCAN-3c, D4, dhf basis sets  
  Marvin Friede          : D4 for Fr, Ra, Ac-Lr                          
  Lars Goerigk           : TD-DFT with DH, B97 family of functionals     
  Stefan Grimme          : VdW corrections, initial TS optimization, DFT functionals, gCP, sTDA/sTD-DF 
  Waldemar Hujo          : DFT-NL                                        
  H. Jonsson             : NEB                                           
  Holger Kruse           : gCP                                           
  Marcel Mueller         : wB97X-3c, vDZP basis set                      
  Hagen Neugebauer       : wr2SCAN, Native XTB                           
  Gianluca Regni         : ADLD/ADEX                                     
  Tobias Risthaus        : pre 6.0 range-separated hybrid DFT and stability analysis
  Lukas Wittmann         : regularized MP2, r2SCAN double-hybrids, wr2SCAN        
                                                                         
We gratefully acknowledge several colleagues who have allowed us to      
interface, adapt or use parts of their codes:                            
  Ed Valeev, F. Pavosevic, A. Kumar             : LibInt (2-el integral package), F12 methods 
  Garnet Chan, S. Sharma, J. Yang, R. Olivares  : DMRG                   
  Ulf Ekstrom                                   : XCFun DFT Library      
  Mihaly Kallay                                 : mrcc  (arbitrary order and MRCC methods)
  Frank Weinhold                                : gennbo (NPA and NBO analysis)           
  Simon Mueller                                 : openCOSMO-RS                            
  Christopher J. Cramer and Donald G. Truhlar   : smd solvation model                     
  S Lehtola, MJT Oliveira, MAL Marques          : LibXC Library                           
  Liviu Ungur et al                             : ANISO software                          


 Your calculation uses the libint2 library for the computation of 2-el integrals
 For citations please refer to: http://libint.valeyev.net

 Your ORCA version has been built with support for libXC version: 7.0.0
 For citations please refer to: https://libxc.gitlab.io

 This ORCA versions uses:
   CBLAS   interface :  Fast vector & matrix operations
   LAPACKE interface :  Fast linear algebra routines
   SCALAPACK package :  Parallel linear algebra routines
   Shared memory     :  Shared parallel matrices
   BLAS/LAPACK       :  OpenBLAS 0.3.29  USE64BITINT DYNAMIC_ARCH NO_AFFINITY Zen SINGLE_THREADED
        Core in use  :  Zen
   Copyright (c) 2011-2014, The OpenBLAS Project


  ***********************************
  * Starting time: Wed Jul 23 14:37:57 2025
  * Host name:     node066.cluster
  * Process ID:    4027643
  * Working dir.:  /scratch/53166909/_e0ifd0
  ***********************************

NOTE: MaxCore=3840 MB was set to SCF,MP2,MDCI,CIPSI,MRCI,RASCI and CIS
      => If you want to overwrite this, your respective input block should be placed after the MaxCore statement
Your calculation utilizes the atom-pairwise dispersion correction
with the zero-damping scheme (D30)


XCFun DFT library Copyright 2009-2010 Ulf Ekstrom and contributors.
See http://admol.org/xcfun for more information.
This is free software; see the source code for copying conditions.
There is ABSOLUTELY NO WARRANTY; not even for MERCHANTABILITY or FITNESS FOR A PARTICULAR PURPOSE.
For details see the documentation.
Scientific users of this library should cite U. Ekstrom, L. Visscher, R. Bast, A. J. Thorvaldsen and K. Ruud;
J.Chem.Theor.Comp. 2010, DOI: 10.1021/ct100117s
XCFun Version 0.99 

Warning: RI is on but no J-basis has been assigned. Assigning Def2/J (nothing to worry about!)
================================================================================

----- Orbital basis set information -----
Your calculation utilizes the basis: 6-31G**
   H-He, Li-Ne : W. J. Hehre, R. Ditchfield and J.A. Pople, J. Chem. Phys. 56, 2257 (1972).
                 Note: He and Ne are unpublished basis sets taken from the Gaussian program.
                 Note: Li and B from J. D. Dill and J. A. Pople, J. Chem. Phys. 62, 2921 (1975).
   Na - Ar     : M. M. Francl, W. J. Pietro, W. J. Hehre, J. S. Binkley, M. S. Gordon, 
                 D. J. DeFrees and J. A. Pople, J. Chem. Phys. 77, 3654 (1982).
   K - Zn      : V. A. Rassolov, J. A. Pople, M. A. Ratner, and T. L. Windus, J. Chem. Phys. 109, 1223 (1998).

----- AuxJ basis set information -----
Your calculation utilizes the auxiliary basis: def2/J
   H-Rn: F. Weigend, Phys. Chem. Chem. Phys. 8, 1057 (2006).
   Fr-Lr: K. Eichkorn, F. Weigend, O. Treutler, R. Ahlrichs; Theor. Chem. Acc. 97, 119 (1997).

================================================================================
                                        WARNINGS
                       Please study these warnings very carefully!
================================================================================


WARNING: Geometry Optimization
  ===> : Switching off AutoStart
         For restart on a previous wavefunction, please use MOREAD

================================================================================
                                       INPUT FILE
================================================================================
NAME = input.inp
|  1> # Automatically generated ORCA input
|  2> 
|  3> # Number of cores
|  4> %pal nprocs 8 end
|  5> # RAM per core
|  6> %maxcore 3840
|  7> 
|  8> ! wB97X-D3 
|  9> ! 6-31G** 
| 10> ! TightSCF 
| 11> ! Opt 
| 12> ! Freq 
| 13> ! NoSym 
| 14> 
| 15> %geom
| 16>   Calc_Hess true
| 17> end
| 18> %Output
| 19>   JSONPropFile True
| 20> End
| 21> 
| 22> 
| 23> *xyz 0 1 
| 24> C         0.39866200     -2.00789900      0.96565000
| 25> C         1.37293100     -1.03016300      1.14865700
| 26> C         0.99970900      0.22669800      1.60780900
| 27> C        -0.33474600      0.49489100      1.89846500
| 28> C        -1.30934800     -0.48922500      1.72147700
| 29> C        -0.94919300     -1.75942200      1.23247400
| 30> H         0.69422700     -2.98196800      0.58267800
| 31> H         2.41208800     -1.24534600      0.92122100
| 32> H         1.74645100      1.00221700      1.74827900
| 33> H        -0.61366700      1.47657600      2.26709100
| 34> N        -2.68994400     -0.25217600      2.00225100
| 35> B        -2.06513000     -2.84204800      0.95546600
| 36> H        -2.42087900     -3.62742600      1.78897800
| 37> H        -3.12591800     -2.22202700      0.49217700
| 38> H        -1.79316200     -3.52666800     -0.12323900
| 39> C        -3.14674200      1.11605100      1.84935100
| 40> H        -4.24103100      1.12412600      1.83731000
| 41> H        -2.81959000      1.78642800      2.66362700
| 42> H        -2.78967300      1.52155400      0.90013700
| 43> C        -3.13738600     -0.82718100      3.26484800
| 44> H        -2.73911600     -0.28094300      4.13710100
| 45> H        -4.23083100     -0.79883600      3.31022300
| 46> H        -2.81969000     -1.86861900      3.34257700
| 47> B        -2.88015300     -2.90684100     -0.61682000
| 48> H        -2.48722100     -2.14704600     -1.44840700
| 49> C        -4.06646100     -3.89677700     -0.90853800
| 50> C        -4.31035600     -4.38030400     -2.21562600
| 51> C        -4.98133100     -4.22988400      0.09719700
| 52> C        -5.46362800     -5.13146100     -2.47097400
| 53> C        -6.12228100     -4.98331900     -0.15656600
| 54> H        -4.80904600     -3.86062600      1.10498400
| 55> C        -6.36366500     -5.42326200     -1.45173500
| 56> H        -5.65882200     -5.50565700     -3.46973200
| 57> H        -6.81959400     -5.21055300      0.64307100
| 58> H        -7.25122900     -6.00791700     -1.67480100
| 59> N        -3.39087400     -4.07210000     -3.24732900
| 60> C        -3.87957600     -4.13407400     -4.60876900
| 61> H        -3.16326200     -3.62642600     -5.26200700
| 62> H        -4.00337500     -5.16386800     -4.98914600
| 63> H        -4.83772900     -3.61567500     -4.68704100
| 64> C        -2.07231300     -4.67364900     -3.12818700
| 65> H        -2.06790900     -5.72999700     -3.44851900
| 66> H        -1.35777300     -4.12203200     -3.74719300
| 67> H        -1.71973900     -4.63916100     -2.09722700
| 68> *
| 69> 
| 70> 
| 71>                          ****END OF INPUT****
================================================================================

                       *****************************
                       * Geometry Optimization Run *
                       *****************************

Geometry optimization settings:
Update method            Update   .... BFGS
Choice of coordinates    CoordSys .... (2022) Redundant Internals
Initial Hessian          InHess   .... Almloef's Model
Max. no of cycles        MaxIter  .... 132

Convergence Tolerances:
Energy Change            TolE     ....  5.0000e-06 Eh
Max. Gradient            TolMAXG  ....  3.0000e-04 Eh/bohr
RMS Gradient             TolRMSG  ....  1.0000e-04 Eh/bohr
Max. Displacement        TolMAXD  ....  4.0000e-03 bohr
RMS Displacement         TolRMSD  ....  2.0000e-03 bohr
Strict Convergence                .... False

------------------------------------------------------------------------------
                        ORCA OPTIMIZATION COORDINATE SETUP
------------------------------------------------------------------------------

The optimization will be done in redundant internal coordinates (2022)
Making redundant internal coordinates   ...  (2022 redundants) done
Evaluating the initial hessian          ...  (Is done on the fly) done
Evaluating the coordinates              ...  done
Calculating the B-matrix                .... done
Calculating the G-matrix                .... done
The number of degrees of freedom        ....  243

    -----------------------------------------------------------------
                    Redundant Internal Coordinates


    -----------------------------------------------------------------
         Definition                    Initial Value    d2E/dq (diagonal element)
    -----------------------------------------------------------------
      1. B(C   1,C   0)                  1.3924         0.000000   
      2. B(C   2,C   1)                  1.3892         0.000000   
      3. B(C   3,C   2)                  1.3918         0.000000   
      4. B(C   4,C   3)                  1.3963         0.000000   
      5. B(C   5,C   4)                  1.4079         0.000000   
      6. B(C   5,C   0)                  1.3963         0.000000   
      7. B(H   6,C   0)                  1.0876         0.000000   
      8. B(H   7,C   1)                  1.0853         0.000000   
      9. B(H   8,C   2)                  1.0857         0.000000   
     10. B(H   9,C   3)                  1.0851         0.000000   
     11. B(N  10,C   4)                  1.4287         0.000000   
     12. B(B  11,C   5)                  1.5793         0.000000   
     13. B(H  12,B  11)                  1.1992         0.000000   
     14. B(H  13,B  11)                  1.3131         0.000000   
     15. B(H  14,B  11)                  1.3062         0.000000   
     16. B(C  15,N  10)                  1.4505         0.000000   
     17. B(H  16,C  15)                  1.0944         0.000000   
     18. B(H  17,C  15)                  1.1043         0.000000   
     19. B(H  18,C  15)                  1.0922         0.000000   
     20. B(C  19,N  10)                  1.4577         0.000000   
     21. B(H  20,C  19)                  1.1035         0.000000   
     22. B(H  21,C  19)                  1.0948         0.000000   
     23. B(H  22,C  19)                  1.0916         0.000000   
     24. B(B  23,H  14)                  1.3451         0.000000   
     25. B(B  23,H  13)                  1.3264         0.000000   
     26. B(B  23,B  11)                  1.7722         0.000000   
     27. B(H  24,B  23)                  1.1930         0.000000   
     28. B(C  25,B  23)                  1.5724         0.000000   
     29. B(C  26,C  25)                  1.4148         0.000000   
     30. B(C  27,C  25)                  1.3998         0.000000   
     31. B(C  28,C  26)                  1.3998         0.000000   
     32. B(C  29,C  27)                  1.3906         0.000000   
     33. B(H  30,C  27)                  1.0870         0.000000   
     34. B(C  31,C  29)                  1.3890         0.000000   
     35. B(C  31,C  28)                  1.3907         0.000000   
     36. B(H  32,C  28)                  1.0843         0.000000   
     37. B(H  33,C  29)                  1.0850         0.000000   
     38. B(H  34,C  31)                  1.0860         0.000000   
     39. B(N  35,C  26)                  1.4159         0.000000   
     40. B(C  36,N  35)                  1.4478         0.000000   
     41. B(H  37,C  36)                  1.0943         0.000000   
     42. B(H  38,C  36)                  1.1048         0.000000   
     43. B(H  39,C  36)                  1.0922         0.000000   
     44. B(C  40,N  35)                  1.4542         0.000000   
     45. B(H  41,C  40)                  1.1039         0.000000   
     46. B(H  42,C  40)                  1.0945         0.000000   
     47. B(H  43,C  40)                  1.0901         0.000000   
     48. A(C   1,C   0,H   6)          119.0156         0.000000   
     49. A(C   5,C   0,H   6)          119.2752         0.000000   
     50. A(C   1,C   0,C   5)          121.6932         0.000000   
     51. A(C   0,C   1,H   7)          120.2122         0.000000   
     52. A(C   2,C   1,H   7)          120.3905         0.000000   
     53. A(C   0,C   1,C   2)          119.3920         0.000000   
     54. A(C   3,C   2,H   8)          119.6552         0.000000   
     55. A(C   1,C   2,H   8)          120.2806         0.000000   
     56. A(C   1,C   2,C   3)          120.0629         0.000000   
     57. A(C   4,C   3,H   9)          120.0853         0.000000   
     58. A(C   2,C   3,H   9)          119.4545         0.000000   
     59. A(C   2,C   3,C   4)          120.4601         0.000000   
     60. A(C   5,C   4,N  10)          117.7201         0.000000   
     61. A(C   3,C   4,C   5)          120.0883         0.000000   
     62. A(C   3,C   4,N  10)          122.1848         0.000000   
     63. A(C   0,C   5,B  11)          121.7751         0.000000   
     64. A(C   0,C   5,C   4)          118.2845         0.000000   
     65. A(C   4,C   5,B  11)          119.9092         0.000000   
     66. A(C   4,N  10,C  15)          116.1110         0.000000   
     67. A(C  15,N  10,C  19)          111.5124         0.000000   
     68. A(C   4,N  10,C  19)          113.6651         0.000000   
     69. A(H  13,B  11,H  14)           97.1409         0.000000   
     70. A(H  12,B  11,H  14)          107.0072         0.000000   
     71. A(C   5,B  11,H  14)          110.9171         0.000000   
     72. A(C   5,B  11,B  23)          120.3749         0.000000   
     73. A(C   5,B  11,H  12)          122.4564         0.000000   
     74. A(C   5,B  11,H  13)          108.0004         0.000000   
     75. A(H  14,B  11,B  23)           48.9987         0.000000   
     76. A(H  12,B  11,B  23)          117.1474         0.000000   
     77. A(H  13,B  11,B  23)           48.1427         0.000000   
     78. A(H  12,B  11,H  13)          108.3490         0.000000   
     79. A(B  11,H  13,B  23)           84.3485         0.000000   
     80. A(B  11,H  14,B  23)           83.8727         0.000000   
     81. A(H  17,C  15,H  18)          108.5779         0.000000   
     82. A(H  16,C  15,H  18)          108.3361         0.000000   
     83. A(N  10,C  15,H  18)          109.8069         0.000000   
     84. A(H  16,C  15,H  17)          107.4492         0.000000   
     85. A(N  10,C  15,H  16)          108.8448         0.000000   
     86. A(N  10,C  15,H  17)          113.6776         0.000000   
     87. A(H  21,C  19,H  22)          108.2065         0.000000   
     88. A(H  20,C  19,H  22)          108.1149         0.000000   
     89. A(N  10,C  19,H  22)          110.4061         0.000000   
     90. A(H  20,C  19,H  21)          108.3543         0.000000   
     91. A(N  10,C  19,H  21)          109.4062         0.000000   
     92. A(N  10,C  19,H  20)          112.2457         0.000000   
     93. A(H  14,B  23,C  25)          112.8084         0.000000   
     94. A(H  13,B  23,C  25)          109.9001         0.000000   
     95. A(B  11,B  23,C  25)          122.3168         0.000000   
     96. A(H  14,B  23,H  24)          106.4449         0.000000   
     97. A(H  13,B  23,H  24)          108.3624         0.000000   
     98. A(B  11,B  23,H  24)          116.3390         0.000000   
     99. A(H  13,B  23,H  14)           94.6369         0.000000   
    100. A(B  11,B  23,H  14)           47.1285         0.000000   
    101. A(H  24,B  23,C  25)          121.3416         0.000000   
    102. A(B  11,B  23,H  13)           47.5088         0.000000   
    103. A(C  26,C  25,C  27)          118.0197         0.000000   
    104. A(B  23,C  25,C  27)          120.6383         0.000000   
    105. A(B  23,C  25,C  26)          121.1054         0.000000   
    106. A(C  25,C  26,C  28)          119.5996         0.000000   
    107. A(C  28,C  26,N  35)          121.2586         0.000000   
    108. A(C  25,C  26,N  35)          119.1316         0.000000   
    109. A(C  29,C  27,H  30)          118.8981         0.000000   
    110. A(C  25,C  27,H  30)          118.7951         0.000000   
    111. A(C  25,C  27,C  29)          122.2794         0.000000   
    112. A(C  26,C  28,C  31)          120.8037         0.000000   
    113. A(C  31,C  28,H  32)          119.0894         0.000000   
    114. A(C  26,C  28,H  32)          120.1018         0.000000   
    115. A(C  31,C  29,H  33)          120.6088         0.000000   
    116. A(C  27,C  29,H  33)          120.4153         0.000000   
    117. A(C  27,C  29,C  31)          118.9697         0.000000   
    118. A(C  29,C  31,H  34)          120.2707         0.000000   
    119. A(C  28,C  31,H  34)          119.4298         0.000000   
    120. A(C  28,C  31,C  29)          120.2957         0.000000   
    121. A(C  36,N  35,C  40)          111.4320         0.000000   
    122. A(C  26,N  35,C  40)          116.0452         0.000000   
    123. A(C  26,N  35,C  36)          117.1715         0.000000   
    124. A(H  38,C  36,H  39)          108.6295         0.000000   
    125. A(H  37,C  36,H  39)          108.1361         0.000000   
    126. A(N  35,C  36,H  39)          110.0710         0.000000   
    127. A(H  37,C  36,H  38)          107.4719         0.000000   
    128. A(N  35,C  36,H  38)          113.6714         0.000000   
    129. A(N  35,C  36,H  37)          108.6942         0.000000   
    130. A(H  42,C  40,H  43)          107.9244         0.000000   
    131. A(H  41,C  40,H  43)          107.6636         0.000000   
    132. A(N  35,C  40,H  43)          110.9564         0.000000   
    133. A(H  41,C  40,H  42)          108.3946         0.000000   
    134. A(N  35,C  40,H  42)          109.7018         0.000000   
    135. A(N  35,C  40,H  41)          112.0679         0.000000   
    136. D(C   2,C   1,C   0,H   6)    178.5079         0.000000   
    137. D(H   7,C   1,C   0,H   6)     -0.6565         0.000000   
    138. D(C   2,C   1,C   0,C   5)     -0.0260         0.000000   
    139. D(H   7,C   1,C   0,C   5)   -179.1904         0.000000   
    140. D(C   3,C   2,C   1,C   0)      0.8906         0.000000   
    141. D(H   8,C   2,C   1,H   7)     -0.3604         0.000000   
    142. D(H   8,C   2,C   1,C   0)   -179.5232         0.000000   
    143. D(C   3,C   2,C   1,H   7)   -179.9465         0.000000   
    144. D(H   9,C   3,C   2,C   1)    179.3180         0.000000   
    145. D(H   9,C   3,C   2,H   8)     -0.2708         0.000000   
    146. D(C   4,C   3,C   2,H   8)    179.8729         0.000000   
    147. D(C   4,C   3,C   2,C   1)     -0.5384         0.000000   
    148. D(N  10,C   4,C   3,C   2)   -179.7061         0.000000   
    149. D(C   5,C   4,C   3,H   9)    179.4632         0.000000   
    150. D(C   5,C   4,C   3,C   2)     -0.6814         0.000000   
    151. D(N  10,C   4,C   3,H   9)      0.4385         0.000000   
    152. D(B  11,C   5,C   4,N  10)      2.5707         0.000000   
    153. D(B  11,C   5,C   4,C   3)   -176.4968         0.000000   
    154. D(C   0,C   5,C   4,N  10)   -179.4256         0.000000   
    155. D(B  11,C   5,C   0,H   6)     -1.7311         0.000000   
    156. D(C   0,C   5,C   4,C   3)      1.5069         0.000000   
    157. D(C   4,C   5,C   0,H   6)   -179.6956         0.000000   
    158. D(B  11,C   5,C   0,C   1)    176.7991         0.000000   
    159. D(C   4,C   5,C   0,C   1)     -1.1655         0.000000   
    160. D(C  19,N  10,C   4,C   5)     78.3860         0.000000   
    161. D(C  19,N  10,C   4,C   3)   -102.5673         0.000000   
    162. D(C  15,N  10,C   4,C   5)   -150.2628         0.000000   
    163. D(C  15,N  10,C   4,C   3)     28.7839         0.000000   
    164. D(H  12,B  11,C   5,C   0)     91.6007         0.000000   
    165. D(H  13,B  11,C   5,C   0)   -141.6058         0.000000   
    166. D(H  12,B  11,C   5,C   4)    -90.4672         0.000000   
    167. D(H  14,B  11,C   5,C   4)    141.6409         0.000000   
    168. D(H  14,B  11,C   5,C   0)    -36.2913         0.000000   
    169. D(H  13,B  11,C   5,C   4)     36.3263         0.000000   
    170. D(B  23,H  13,B  11,H  14)      0.2344         0.000000   
    171. D(B  23,H  13,B  11,H  12)   -110.3827         0.000000   
    172. D(B  23,H  13,B  11,C   5)    115.0079         0.000000   
    173. D(B  23,H  14,B  11,H  13)     -0.2314         0.000000   
    174. D(B  23,H  14,B  11,H  12)    111.4901         0.000000   
    175. D(B  23,H  14,B  11,C   5)   -112.6452         0.000000   
    176. D(H  18,C  15,N  10,C   4)     47.1774         0.000000   
    177. D(H  17,C  15,N  10,C  19)     57.6795         0.000000   
    178. D(H  17,C  15,N  10,C   4)    -74.6716         0.000000   
    179. D(H  16,C  15,N  10,C  19)    -62.0318         0.000000   
    180. D(H  16,C  15,N  10,C   4)    165.6171         0.000000   
    181. D(H  22,C  19,N  10,C   4)    -48.7938         0.000000   
    182. D(H  21,C  19,N  10,C  15)     58.6569         0.000000   
    183. D(H  21,C  19,N  10,C   4)   -167.7733         0.000000   
    184. D(H  20,C  19,N  10,C   4)     71.9088         0.000000   
    185. D(H  20,C  19,N  10,C  15)    -61.6610         0.000000   
    186. D(H  13,B  23,H  14,B  11)      0.2280         0.000000   
    187. D(C  25,B  23,H  13,B  11)    116.0677         0.000000   
    188. D(H  24,B  23,H  13,B  11)   -109.2638         0.000000   
    189. D(H  24,B  23,B  11,H  12)   -177.7770         0.000000   
    190. D(H  24,B  23,B  11,C   5)      3.8615         0.000000   
    191. D(H  14,B  23,B  11,H  13)    179.6918         0.000000   
    192. D(H  14,B  23,B  11,H  12)    -89.4145         0.000000   
    193. D(H  14,B  23,H  13,B  11)     -0.2266         0.000000   
    194. D(H  14,B  23,B  11,C   5)     92.2241         0.000000   
    195. D(H  13,B  23,B  11,H  14)   -179.6918         0.000000   
    196. D(H  13,B  23,B  11,H  12)     90.8937         0.000000   
    197. D(H  24,B  23,H  14,B  11)    110.9284         0.000000   
    198. D(H  13,B  23,B  11,C   5)    -87.4677         0.000000   
    199. D(C  25,B  23,H  14,B  11)   -113.6364         0.000000   
    200. D(C  27,C  25,B  23,H  13)    -17.2975         0.000000   
    201. D(C  27,C  25,B  23,B  11)     34.3099         0.000000   
    202. D(C  26,C  25,B  23,H  24)     29.2157         0.000000   
    203. D(C  26,C  25,B  23,H  14)    -98.7858         0.000000   
    204. D(C  26,C  25,B  23,H  13)    157.0028         0.000000   
    205. D(C  26,C  25,B  23,B  11)   -151.3898         0.000000   
    206. D(N  35,C  26,C  25,C  27)   -179.1849         0.000000   
    207. D(N  35,C  26,C  25,B  23)      6.3698         0.000000   
    208. D(C  28,C  26,C  25,C  27)      1.9574         0.000000   
    209. D(C  28,C  26,C  25,B  23)   -172.4879         0.000000   
    210. D(H  30,C  27,C  25,C  26)   -179.6762         0.000000   
    211. D(H  30,C  27,C  25,B  23)     -5.2038         0.000000   
    212. D(C  29,C  27,C  25,C  26)     -1.6021         0.000000   
    213. D(C  29,C  27,C  25,B  23)    172.8703         0.000000   
    214. D(H  32,C  28,C  26,N  35)      1.1407         0.000000   
    215. D(H  32,C  28,C  26,C  25)    179.9735         0.000000   
    216. D(C  31,C  28,C  26,N  35)   -179.6901         0.000000   
    217. D(C  31,C  28,C  26,C  25)     -0.8573         0.000000   
    218. D(H  33,C  29,C  27,H  30)     -0.9398         0.000000   
    219. D(H  33,C  29,C  27,C  25)   -179.0119         0.000000   
    220. D(C  31,C  29,C  27,H  30)    178.1621         0.000000   
    221. D(C  31,C  29,C  27,C  25)      0.0900         0.000000   
    222. D(H  34,C  31,C  29,H  33)     -0.5285         0.000000   
    223. D(H  34,C  31,C  29,C  27)   -179.6286         0.000000   
    224. D(C  28,C  31,C  29,H  33)   -179.8205         0.000000   
    225. D(C  28,C  31,C  29,C  27)      1.0794         0.000000   
    226. D(H  34,C  31,C  28,H  32)     -0.8151         0.000000   
    227. D(H  34,C  31,C  28,C  26)   -179.9926         0.000000   
    228. D(C  29,C  31,C  28,H  32)    178.4828         0.000000   
    229. D(C  29,C  31,C  28,C  26)     -0.6947         0.000000   
    230. D(C  40,N  35,C  26,C  28)   -113.9821         0.000000   
    231. D(C  40,N  35,C  26,C  25)     67.1798         0.000000   
    232. D(C  36,N  35,C  26,C  28)     21.0905         0.000000   
    233. D(C  36,N  35,C  26,C  25)   -157.7476         0.000000   
    234. D(H  39,C  36,N  35,C  26)     46.9080         0.000000   
    235. D(H  38,C  36,N  35,C  40)     61.8291         0.000000   
    236. D(H  38,C  36,N  35,C  26)    -75.2000         0.000000   
    237. D(H  37,C  36,N  35,C  40)    -57.8018         0.000000   
    238. D(H  37,C  36,N  35,C  26)    165.1692         0.000000   
    239. D(H  43,C  40,N  35,C  26)    -41.4141         0.000000   
    240. D(H  42,C  40,N  35,C  36)     61.8794         0.000000   
    241. D(H  42,C  40,N  35,C  26)   -160.5707         0.000000   
    242. D(H  41,C  40,N  35,C  36)    -58.5748         0.000000   
    243. D(H  41,C  40,N  35,C  26)     78.9751         0.000000   
    -----------------------------------------------------------------

Number of atoms                         .... 44
Number of degrees of freedom            .... 243


         *************************************************************
         *                GEOMETRY OPTIMIZATION CYCLE   1            *
         *************************************************************
---------------------------------
CARTESIAN COORDINATES (ANGSTROEM)
---------------------------------
  C      0.398662   -2.007899    0.965650
  C      1.372931   -1.030163    1.148657
  C      0.999709    0.226698    1.607809
  C     -0.334746    0.494891    1.898465
  C     -1.309348   -0.489225    1.721477
  C     -0.949193   -1.759422    1.232474
  H      0.694227   -2.981968    0.582678
  H      2.412088   -1.245346    0.921221
  H      1.746451    1.002217    1.748279
  H     -0.613667    1.476576    2.267091
  N     -2.689944   -0.252176    2.002251
  B     -2.065130   -2.842048    0.955466
  H     -2.420879   -3.627426    1.788978
  H     -3.125918   -2.222027    0.492177
  H     -1.793162   -3.526668   -0.123239
  C     -3.146742    1.116051    1.849351
  H     -4.241031    1.124126    1.837310
  H     -2.819590    1.786428    2.663627
  H     -2.789673    1.521554    0.900137
  C     -3.137386   -0.827181    3.264848
  H     -2.739116   -0.280943    4.137101
  H     -4.230831   -0.798836    3.310223
  H     -2.819690   -1.868619    3.342577
  B     -2.880153   -2.906841   -0.616820
  H     -2.487221   -2.147046   -1.448407
  C     -4.066461   -3.896777   -0.908538
  C     -4.310356   -4.380304   -2.215626
  C     -4.981331   -4.229884    0.097197
  C     -5.463628   -5.131461   -2.470974
  C     -6.122281   -4.983319   -0.156566
  H     -4.809046   -3.860626    1.104984
  C     -6.363665   -5.423262   -1.451735
  H     -5.658822   -5.505657   -3.469732
  H     -6.819594   -5.210553    0.643071
  H     -7.251229   -6.007917   -1.674801
  N     -3.390874   -4.072100   -3.247329
  C     -3.879576   -4.134074   -4.608769
  H     -3.163262   -3.626426   -5.262007
  H     -4.003375   -5.163868   -4.989146
  H     -4.837729   -3.615675   -4.687041
  C     -2.072313   -4.673649   -3.128187
  H     -2.067909   -5.729997   -3.448519
  H     -1.357773   -4.122032   -3.747193
  H     -1.719739   -4.639161   -2.097227

----------------------------
CARTESIAN COORDINATES (A.U.)
----------------------------
  NO LB      ZA    FRAG     MASS         X           Y           Z
   0 C     6.0000    0    12.011    0.753362   -3.794379    1.824814
   1 C     6.0000    0    12.011    2.594464   -1.946726    2.170647
   2 C     6.0000    0    12.011    1.889176    0.428397    3.038319
   3 C     6.0000    0    12.011   -0.632578    0.935208    3.587579
   4 C     6.0000    0    12.011   -2.474309   -0.924501    3.253120
   5 C     6.0000    0    12.011   -1.793715   -3.324826    2.329038
   6 H     1.0000    0     1.008    1.311899   -5.635103    1.101102
   7 H     1.0000    0     1.008    4.558186   -2.353363    1.740855
   8 H     1.0000    0     1.008    3.300314    1.893916    3.303769
   9 H     1.0000    0     1.008   -1.159663    2.790324    4.284181
  10 N     7.0000    0    14.007   -5.083257   -0.476544    3.783706
  11 B     5.0000    0    10.810   -3.902530   -5.370692    1.805569
  12 H     1.0000    0     1.008   -4.574798   -6.854842    3.380678
  13 H     1.0000    0     1.008   -5.907129   -4.199022    0.930080
  14 H     1.0000    0     1.008   -3.388585   -6.664437   -0.232888
  15 C     6.0000    0    12.011   -5.946481    2.109031    3.494767
  16 H     1.0000    0     1.008   -8.014387    2.124290    3.472013
  17 H     1.0000    0     1.008   -5.328253    3.375860    5.033526
  18 H     1.0000    0     1.008   -5.271718    2.875320    1.701012
  19 C     6.0000    0    12.011   -5.928800   -1.563146    6.169669
  20 H     1.0000    0     1.008   -5.176179   -0.530905    7.817988
  21 H     1.0000    0     1.008   -7.995112   -1.509581    6.255415
  22 H     1.0000    0     1.008   -5.328442   -3.531178    6.316555
  23 B     5.0000    0    10.810   -5.442700   -5.493133   -1.165621
  24 H     1.0000    0     1.008   -4.700167   -4.057329   -2.737093
  25 C     6.0000    0    12.011   -7.684498   -7.363841   -1.716888
  26 C     6.0000    0    12.011   -8.145392   -8.277575   -4.186926
  27 C     6.0000    0    12.011   -9.413351   -7.993322    0.183676
  28 C     6.0000    0    12.011  -10.324761   -9.697056   -4.669464
  29 C     6.0000    0    12.011  -11.569434   -9.417108   -0.295867
  30 H     1.0000    0     1.008   -9.087780   -7.295526    2.088117
  31 C     6.0000    0    12.011  -12.025584  -10.248480   -2.743382
  32 H     1.0000    0     1.008  -10.693624  -10.404184   -6.556843
  33 H     1.0000    0     1.008  -12.887165   -9.846518    1.215228
  34 H     1.0000    0     1.008  -13.702837  -11.353318   -3.164915
  35 N     7.0000    0    14.007   -6.407823   -7.695154   -6.136562
  36 C     6.0000    0    12.011   -7.331336   -7.812268   -8.709311
  37 H     1.0000    0     1.008   -5.977699   -6.852952   -9.943752
  38 H     1.0000    0     1.008   -7.565282   -9.758296   -9.428120
  39 H     1.0000    0     1.008   -9.141983   -6.832636   -8.857224
  40 C     6.0000    0    12.011   -3.916104   -8.831917   -5.911417
  41 H     1.0000    0     1.008   -3.907782  -10.828125   -6.516756
  42 H     1.0000    0     1.008   -2.565819   -7.789512   -7.081169
  43 H     1.0000    0     1.008   -3.249836   -8.766744   -3.963185

--------------------------------
INTERNAL COORDINATES (ANGSTROEM)
--------------------------------
 C      0   0   0     0.000000000000     0.00000000     0.00000000
 C      1   0   0     1.392357472816     0.00000000     0.00000000
 C      2   1   0     1.389177740143   119.39204069     0.00000000
 C      3   2   1     1.391825615014   120.06291149     0.89063848
 C      4   3   2     1.396301583471   120.46006338   359.46159420
 C      1   2   3     1.396298308933   121.69320985   359.97400115
 H      1   2   3     1.087582934203   119.01556673   178.50789375
 H      2   1   3     1.085300939018   120.21215046   180.83560072
 H      3   2   1     1.085718727307   120.28060578   180.47675640
 H      4   3   2     1.085074878219   119.45453015   179.31795918
 N      5   4   3     1.428660765435   122.18475030   180.29392147
 B      6   1   2     1.579280809707   121.77512295   176.79906123
 H     12   6   1     1.199215663686   122.45638550    91.60071898
 H     12   6   1     1.313138956435   108.00035896   218.39421500
 H     12   6   1     1.306244852411   110.91705326   323.70874342
 C     11   5   4     1.450547464350   116.11097126    28.78388721
 H     16  11   5     1.094385035911   108.84482236   165.61707723
 H     16  11   5     1.104300302186   113.67760713   285.32835078
 H     16  11   5     1.092217089944   109.80690991    47.17736968
 C     11   5   4     1.457733267027   113.66508284   257.43267306
 H     20  11   5     1.103548930294   112.24566166    71.90884366
 H     20  11   5     1.094753076120   109.40620635   192.22667049
 H     20  11   5     1.091588591779   110.40608514   311.20619078
 B     14  12   6     1.326365332716    84.34852634   115.00788853
 H     24  14  12     1.192988238508   108.36240175   250.73622476
 C     24  14  12     1.572386513070   109.90005295   116.06773031
 C     26  24  14     1.414836446554   121.10542625   157.00279595
 C     26  24  14     1.399803657866   120.63825159   342.70248145
 C     27  26  24     1.399812753813   119.59964701   187.51207553
 C     28  26  24     1.390621034608   122.27941210   172.87025901
 H     28  26  24     1.087045642629   118.79506529   354.79620263
 C     30  28  26     1.388984815348   118.96970951     0.08998082
 H     29  27  26     1.084269748087   120.10184607   179.97349690
 H     30  28  26     1.085034581243   120.41527359   180.98809121
 H     32  30  28     1.085978712258   120.27067430   180.37139712
 N     27  26  24     1.415926528514   119.13164912     6.36979334
 C     36  27  26     1.447822259492   117.17150548   202.25235423
 H     37  36  27     1.094318108753   108.69416167   165.16915617
 H     37  36  27     1.104757229877   113.67142314   284.80002554
 H     37  36  27     1.092209320869   110.07102726    46.90802899
 C     36  27  26     1.454186757705   116.04516314    67.17979924
 H     41  36  27     1.103858271040   112.06786677    78.97512953
 H     41  36  27     1.094539699748   109.70181766   199.42930711
 H     41  36  27     1.090126767500   110.95636342   318.58590048

---------------------------
INTERNAL COORDINATES (A.U.)
---------------------------
 C      0   0   0     0.000000000000     0.00000000     0.00000000
 C      1   0   0     2.631174304141     0.00000000     0.00000000
 C      2   1   0     2.625165480210   119.39204069     0.00000000
 C      3   2   1     2.630169238554   120.06291149     0.89063848
 C      4   3   2     2.638627593121   120.46006338   359.46159420
 C      1   2   3     2.638621405141   121.69320985   359.97400115
 H      1   2   3     2.055233893571   119.01556673   178.50789375
 H      2   1   3     2.050921547632   120.21215046   180.83560072
 H      3   2   1     2.051711053080   120.28060578   180.47675640
 H      4   3   2     2.050494354632   119.45453015   179.31795918
 N      5   4   3     2.699777584950   122.18475030   180.29392147
 B      6   1   2     2.984408218904   121.77512295   176.79906123
 H     12   6   1     2.266189179874   122.45638550    91.60071898
 H     12   6   1     2.481473003444   108.00035896   218.39421500
 H     12   6   1     2.468445034900   110.91705326   323.70874342
 C     11   5   4     2.741137451876   116.11097126    28.78388721
 H     16  11   5     2.068088002934   108.84482236   165.61707723
 H     16  11   5     2.086825140739   113.67760713   285.32835078
 H     16  11   5     2.063991178783   109.80690991    47.17736968
 C     11   5   4     2.754716650988   113.66508284   257.43267306
 H     20  11   5     2.085405253637   112.24566166    71.90884366
 H     20  11   5     2.068783498135   109.40620635   192.22667049
 H     20  11   5     2.062803489374   110.40608514   311.20619078
 B     14  12   6     2.506467232360    84.34852634   115.00788853
 H     24  14  12     2.254421051769   108.36240175   250.73622476
 C     24  14  12     2.971379886373   109.90005295   116.06773031
 C     26  24  14     2.673653408278   121.10542625   157.00279595
 C     26  24  14     2.645245554627   120.63825159   342.70248145
 C     27  26  24     2.645262743476   119.59964701   187.51207553
 C     28  26  24     2.627892911479   122.27941210   172.87025901
 H     28  26  24     2.054218559641   118.79506529   354.79620263
 C     30  28  26     2.624800905182   118.96970951     0.08998082
 H     29  27  26     2.048972879180   120.10184607   179.97349690
 H     30  28  26     2.050418204384   120.41527359   180.98809121
 H     32  30  28     2.052202353436   120.27067430   180.37139712
 N     27  26  24     2.675713364645   119.13164912     6.36979334
 C     36  27  26     2.735987561035   117.17150548   202.25235423
 H     37  36  27     2.067961528933   108.69416167   165.16915617
 H     37  36  27     2.087688608937   113.67142314   284.80002554
 H     37  36  27     2.063976497359   110.07102726    46.90802899
 C     36  27  26     2.748014719638   116.04516314    67.17979924
 H     41  36  27     2.085989822930   112.06786677    78.97512953
 H     41  36  27     2.068380275229   109.70181766   199.42930711
 H     41  36  27     2.060041041832   110.95636342   318.58590048

---------------------
BASIS SET INFORMATION
---------------------
There are 4 groups of distinct atoms

 Group   1 Type C   : 10s4p1d contracted to 3s2p1d pattern {631/31/1}
 Group   2 Type H   : 4s1p contracted to 2s1p pattern {31/1}
 Group   3 Type N   : 10s4p1d contracted to 3s2p1d pattern {631/31/1}
 Group   4 Type B   : 10s4p1d contracted to 3s2p1d pattern {631/31/1}

Atom   0C    basis set group =>   1
Atom   1C    basis set group =>   1
Atom   2C    basis set group =>   1
Atom   3C    basis set group =>   1
Atom   4C    basis set group =>   1
Atom   5C    basis set group =>   1
Atom   6H    basis set group =>   2
Atom   7H    basis set group =>   2
Atom   8H    basis set group =>   2
Atom   9H    basis set group =>   2
Atom  10N    basis set group =>   3
Atom  11B    basis set group =>   4
Atom  12H    basis set group =>   2
Atom  13H    basis set group =>   2
Atom  14H    basis set group =>   2
Atom  15C    basis set group =>   1
Atom  16H    basis set group =>   2
Atom  17H    basis set group =>   2
Atom  18H    basis set group =>   2
Atom  19C    basis set group =>   1
Atom  20H    basis set group =>   2
Atom  21H    basis set group =>   2
Atom  22H    basis set group =>   2
Atom  23B    basis set group =>   4
Atom  24H    basis set group =>   2
Atom  25C    basis set group =>   1
Atom  26C    basis set group =>   1
Atom  27C    basis set group =>   1
Atom  28C    basis set group =>   1
Atom  29C    basis set group =>   1
Atom  30H    basis set group =>   2
Atom  31C    basis set group =>   1
Atom  32H    basis set group =>   2
Atom  33H    basis set group =>   2
Atom  34H    basis set group =>   2
Atom  35N    basis set group =>   3
Atom  36C    basis set group =>   1
Atom  37H    basis set group =>   2
Atom  38H    basis set group =>   2
Atom  39H    basis set group =>   2
Atom  40C    basis set group =>   1
Atom  41H    basis set group =>   2
Atom  42H    basis set group =>   2
Atom  43H    basis set group =>   2
---------------------------------
AUXILIARY/J BASIS SET INFORMATION
---------------------------------
There are 4 groups of distinct atoms

 Group   1 Type C   : 12s5p4d2f1g contracted to 6s4p3d1f1g pattern {711111/2111/211/2/1}
 Group   2 Type H   : 5s2p1d contracted to 3s1p1d pattern {311/2/1}
 Group   3 Type N   : 12s5p4d2f1g contracted to 6s4p3d1f1g pattern {711111/2111/211/2/1}
 Group   4 Type B   : 12s5p4d2f1g contracted to 6s4p3d1f1g pattern {711111/2111/211/2/1}

Atom   0C    basis set group =>   1
Atom   1C    basis set group =>   1
Atom   2C    basis set group =>   1
Atom   3C    basis set group =>   1
Atom   4C    basis set group =>   1
Atom   5C    basis set group =>   1
Atom   6H    basis set group =>   2
Atom   7H    basis set group =>   2
Atom   8H    basis set group =>   2
Atom   9H    basis set group =>   2
Atom  10N    basis set group =>   3
Atom  11B    basis set group =>   4
Atom  12H    basis set group =>   2
Atom  13H    basis set group =>   2
Atom  14H    basis set group =>   2
Atom  15C    basis set group =>   1
Atom  16H    basis set group =>   2
Atom  17H    basis set group =>   2
Atom  18H    basis set group =>   2
Atom  19C    basis set group =>   1
Atom  20H    basis set group =>   2
Atom  21H    basis set group =>   2
Atom  22H    basis set group =>   2
Atom  23B    basis set group =>   4
Atom  24H    basis set group =>   2
Atom  25C    basis set group =>   1
Atom  26C    basis set group =>   1
Atom  27C    basis set group =>   1
Atom  28C    basis set group =>   1
Atom  29C    basis set group =>   1
Atom  30H    basis set group =>   2
Atom  31C    basis set group =>   1
Atom  32H    basis set group =>   2
Atom  33H    basis set group =>   2
Atom  34H    basis set group =>   2
Atom  35N    basis set group =>   3
Atom  36C    basis set group =>   1
Atom  37H    basis set group =>   2
Atom  38H    basis set group =>   2
Atom  39H    basis set group =>   2
Atom  40C    basis set group =>   1
Atom  41H    basis set group =>   2
Atom  42H    basis set group =>   2
Atom  43H    basis set group =>   2


           ************************************************************
           *        Program running with 8 parallel MPI-processes     *
           *              working on a common directory               *
           ************************************************************
------------------------------------------------------------------------------
                             ORCA STARTUP CALCULATIONS
                           -- RI-GTO INTEGRALS CHOSEN --
------------------------------------------------------------------------------
------------------------------------------------------------------------------
                   ___                                                        
                  /   \      - P O W E R E D   B Y -                         
                 /     \                                                     
                 |  |  |   _    _      __       _____    __    __             
                 |  |  |  | |  | |    /  \     |  _  \  |  |  /  |          
                  \  \/   | |  | |   /    \    | | | |  |  | /  /          
                 / \  \   | |__| |  /  /\  \   | |_| |  |  |/  /          
                |  |  |   |  __  | /  /__\  \  |    /   |      \           
                |  |  |   | |  | | |   __   |  |    \   |  |\   \          
                \     /   | |  | | |  |  |  |  | |\  \  |  | \   \       
                 \___/    |_|  |_| |__|  |__|  |_| \__\ |__|  \__/        
                                                                              
                      - O R C A' S   B I G   F R I E N D -                    
                                      &                                       
                       - I N T E G R A L  F E E D E R -                       
                                                                              
 v1 FN, 2020, v2 2021, v3 2022-2024                                           
------------------------------------------------------------------------------


----------------------
SHARK INTEGRAL PACKAGE
----------------------

Number of atoms                             ...     44
Number of basis functions                   ...    400
Number of shells                            ...    192
Maximum angular momentum                    ...      2
Integral batch strategy                     ... SHARK/LIBINT Hybrid
RI-J (if used) integral strategy            ... SPLIT-RIJ (Revised 2003 algorithm where possible)
Printlevel                                  ...      1
Contraction scheme used                     ... SEGMENTED contraction
Prescreening option                         ... SCHWARTZ
   Thresh                                   ... 2.500e-11
   Tcut                                     ... 2.500e-12
   Tpresel                                  ... 2.500e-12 
Coulomb Range Separation                    ... NOT USED
Exchange Range Separation                   ... Long Range
   Mu parameter                             ... 2.500e-01
   Scaling (regular/separated)              ... 1.957e-01 8.043e-01
Robust (split-)RI terms used:
  metric    (central integrals)             ... YES
  density   (r.h.s.  integrals)             ... YES
  potential (l.h.s.  integrals)             ... YES
Multipole approximations                    ... NOT USED
Finite Nucleus Model                        ... NOT USED
CABS basis                                  ... NOT available
Auxiliary Coulomb fitting basis             ... AVAILABLE
   # of basis functions in Aux-J            ...   1244
   # of shells in Aux-J                     ...    420
   Maximum angular momentum in Aux-J        ...      4
Auxiliary J/K fitting basis                 ... NOT available
Auxiliary Correlation fitting basis         ... NOT available
Auxiliary 'external' fitting basis          ... NOT available

Checking pre-screening integrals            ... done (  0.0 sec) Dimension = 192
   => SHARK Basis and OBASIS are compatible. Storing Pre-screening
Shell pair information
Shell pair cut-off parameter TPreSel        ...   2.5e-12
Total number of shell pairs                 ...     18528
Shell pairs after pre-screening             ...     12347
Total number of primitive shell pairs       ...     88902
Primitive shell pairs kept                  ...     34726
          la=0 lb=0:   3983 shell pairs
          la=1 lb=0:   4646 shell pairs
          la=1 lb=1:   1420 shell pairs
          la=2 lb=0:   1374 shell pairs
          la=2 lb=1:    802 shell pairs
          la=2 lb=2:    122 shell pairs

Checking whether 4 symmetric matrices of dimension 400 fit in memory
:Max Core in MB      =   3840.00
 MB in use           =     19.53
 MB left             =   3820.47
 MB needed           =      2.45
 Data fit in memory  = YES
Calculating RI/J V-Matrix + Cholesky decomp.... done (  1.6 sec)
Calculating Nuclear repulsion               ... done (  0.0 sec) ENN=   1438.504937454088 Eh

Diagonalization of the overlap matrix:
Smallest eigenvalue                        ... 4.172e-04
Time for diagonalization                   ...    0.047 sec
Threshold for overlap eigenvalues          ... 1.000e-07
Number of eigenvalues below threshold      ... 0
Time for construction of square roots      ...    0.074 sec
Total time needed                          ...    0.333 sec

-------------------
DFT GRID GENERATION
-------------------

General Integration Accuracy     IntAcc      ... 4.388
Radial Grid Type                 RadialGrid  ... OptM3 with GC (2021)
Angular Grid (max. ang.)         AngularGrid ... 4 (Lebedev-302)
Angular grid pruning method      GridPruning ... 4 (adaptive)
Weight generation scheme         WeightScheme... mBecke (2022)
Basis function cutoff            BFCut       ... 1.0000e-11
Integration weight cutoff        WCut        ... 1.0000e-14
Partially contracted basis set               ... off
Rotationally invariant grid construction     ... off
Angular grids for H and He will be reduced by one unit

Total number of grid points                  ...   195110
Total number of batches                      ...     3072
Average number of points per batch           ...       63
Average number of grid points per atom       ...     4434

--------------------
COSX GRID GENERATION
--------------------

GRIDX 1
-------
General Integration Accuracy     IntAcc      ... 3.816
Radial Grid Type                 RadialGrid  ... OptM3 with GC (2021)
Angular Grid (max. ang.)         AngularGrid ... 1 (Lebedev-50)
Angular grid pruning method      GridPruning ... 4 (adaptive)
Weight generation scheme         WeightScheme... mBecke (2022)
Basis function cutoff            BFCut       ... 1.0000e-11
Integration weight cutoff        WCut        ... 1.0000e-14
Partially contracted basis set               ... on
Rotationally invariant grid construction     ... off
Angular grids for H and He will be reduced by one unit

Total number of grid points                  ...    24849
Total number of batches                      ...      219
Average number of points per batch           ...      113
Average number of grid points per atom       ...      565
UseSFitting                                  ... on

GRIDX 2
-------
General Integration Accuracy     IntAcc      ... 4.020
Radial Grid Type                 RadialGrid  ... OptM3 with GC (2021)
Angular Grid (max. ang.)         AngularGrid ... 2 (Lebedev-110)
Angular grid pruning method      GridPruning ... 4 (adaptive)
Weight generation scheme         WeightScheme... mBecke (2022)
Basis function cutoff            BFCut       ... 1.0000e-11
Integration weight cutoff        WCut        ... 1.0000e-14
Partially contracted basis set               ... on
Rotationally invariant grid construction     ... off
Angular grids for H and He will be reduced by one unit

Total number of grid points                  ...    52380
Total number of batches                      ...      433
Average number of points per batch           ...      120
Average number of grid points per atom       ...     1190
UseSFitting                                  ... on

GRIDX 3
-------
General Integration Accuracy     IntAcc      ... 4.338
Radial Grid Type                 RadialGrid  ... OptM3 with GC (2021)
Angular Grid (max. ang.)         AngularGrid ... 3 (Lebedev-194)
Angular grid pruning method      GridPruning ... 4 (adaptive)
Weight generation scheme         WeightScheme... mBecke (2022)
Basis function cutoff            BFCut       ... 1.0000e-11
Integration weight cutoff        WCut        ... 1.0000e-14
Partially contracted basis set               ... on
Rotationally invariant grid construction     ... off
Angular grids for H and He will be reduced by one unit

Total number of grid points                  ...   114114
Total number of batches                      ...      913
Average number of points per batch           ...      124
Average number of grid points per atom       ...     2594
UseSFitting                                  ... on
Grids setup in   2.7 sec
Initializing property integral containers    ... done (  0.0 sec)

SHARK setup successfully completed in   4.9 seconds

Maximum memory used throughout the entire STARTUP-calculation: 53.7 MB


           ************************************************************
           *        Program running with 8 parallel MPI-processes     *
           *              working on a common directory               *
           ************************************************************
-------------------------------------------------------------------------------
                                 ORCA GUESS
                   Start orbitals & Density for SCF / CASSCF
-------------------------------------------------------------------------------

------------
SCF SETTINGS
------------
Hamiltonian:
 Density Functional     Method          .... DFT(GTOs)
 Exchange Functional    Exchange        .... WB97X-D3
 Correlation Functional Correlation     .... WB97X-D3
 Gradients option       PostSCFGGA      .... off
 Hybrid DFT is turned on
   Fraction HF Exchange ScalHFX         ....  0.195728
   Scaling of DF-GGA-X  ScalDFX         ....  0.000000
   Scaling of DF-GGA-C  ScalDFC         ....  1.000000
   Scaling of DF-LDA-C  ScalLDAC        ....  1.000000
   Perturbative correction              ....  0.000000
 Long-range corrected/Screened/Range-Separated Hybrid DFT is turned on
   Amount of maximum screened exact exchange              ....  0.804272
   Range separation parameter mu (erf(mu*r12)/r12)        ....  0.250000
 RI-approximation to the Coulomb term is turned on
   Number of AuxJ basis functions       .... 1244
   RIJ-COSX (HFX calculated with COS-X)).... on


General Settings:
 Integral files         IntName         .... input
 Hartree-Fock type      HFTyp           .... RHF
 Total Charge           Charge          ....    0
 Multiplicity           Mult            ....    1
 Number of Electrons    NEL             ....  144
 Basis Dimension        Dim             ....  400
 Nuclear Repulsion      ENuc            ....   1438.5049374541 Eh

Convergence Acceleration:
 AO-DIIS                CNVDIIS         .... on
   Start iteration      DIISMaxIt       ....    12
   Startup error        DIISStart       ....  0.200000
   # of expansion vecs  DIISMaxEq       ....     5
   Bias factor          DIISBfac        ....   1.050
   Max. coefficient     DIISMaxC        ....  10.000
 MO-DIIS                CNVKDIIS        .... off
 Trust-Rad. Augm. Hess. CNVTRAH         .... auto
   Auto Start mean grad. ratio tolernc. ....  1.125000
   Auto Start start iteration           ....    50
   Auto Start num. interpolation iter.  ....    10
   Max. Number of Micro iterations      ....    24
   Max. Number of Macro iterations      .... Maxiter - #DIIS iter
   Number of Davidson start vectors     ....     2
   Converg. threshold    (grad. norm)   ....   1.000e-05
   Grad. Scal. Fac. for Micro threshold ....   0.100
   Minimum threshold for Micro iter.    ....   1.000e-02
   NR start threshold (gradient norm)   ....   1.000e-04
   Initial trust radius                 ....   0.400
   Minimum AH scaling param. (alpha)    ....   1.000
   Maximum AH scaling param. (alpha)    .... 1000.000
   Quad. conv. algorithm                .... NR
   White noise on init. David. guess    .... on
   Maximum white noise                  ....   0.010
   Pseudo random numbers                .... off
   Inactive MOs                         .... canonical
   Orbital update algorithm             .... Taylor
   Preconditioner                       .... Diag
   Full preconditioner red. dimension   ....   250
 SOSCF                 CNVSOSCF           .... on
   Start iteration     SOSCFMaxIt         ....   150
   Startup grad/error  SOSCFStart         ....  0.003300
   Hessian update      SOSCFHessUp        .... L-BFGS
   Autom. constraints  SOSCFAutoConstrain .... off
 Level Shifting         CNVShift        .... on
   Level shift para.    LevelShift      ....    0.2500
   Turn off err/grad.   ShiftErr        ....    0.0010
 Zerner damping         CNVZerner       .... off
 Static damping         CNVDamp         .... on
   Fraction old density DampFac         ....    0.7000
   Max. Damping (<1)    DampMax         ....    0.9800
   Min. Damping (>=0)   DampMin         ....    0.0000
   Turn off err/grad.   DampErr         ....    0.1000

SCF Procedure:
 Maximum # iterations   MaxIter         ....   125
 SCF integral mode      SCFMode         .... Direct
   Integral package                     .... SHARK and LIBINT hybrid scheme
 Reset frequency        DirectResetFreq ....    20
 Integral Threshold     Thresh          ....  2.500e-11 Eh
 Primitive CutOff       TCut            ....  2.500e-12 Eh

Convergence Tolerance:
 Convergence Check Mode ConvCheckMode   .... Total+1el-Energy
 Convergence forced     ConvForced      .... 0
 Energy Change          TolE            ....  1.000e-08 Eh
 1-El. energy change                    ....  1.000e-05 Eh
 Orbital Gradient       TolG            ....  1.000e-05
 Orbital Rotation angle TolX            ....  1.000e-05
 DIIS Error             TolErr          ....  5.000e-07

------------------------------
INITIAL GUESS: MODEL POTENTIAL
------------------------------
Loading Hartree-Fock densities                     ... done
Calculating cut-offs                               ... done
Initializing the effective Hamiltonian             ... done
Setting up the integral package (SHARK)            ... done
Starting the Coulomb interaction                   ... done (   0.2 sec)
Making the grid                                    ... done (   0.3 sec)
Mapping shells                                     ... done
Starting the XC term evaluation                    ... done (   0.1 sec)
  promolecular density results
     # of electrons  =    143.982217879
     EX              =   -109.658332567
     EC              =     -4.755312846
     EX+EC           =   -114.413645412
Transforming the Hamiltonian                       ... done (   0.0 sec)
Diagonalizing the Hamiltonian                      ... done (   0.0 sec)
Back transforming the eigenvectors                 ... done (   0.0 sec)
Now organizing SCF variables                       ... done
                      ------------------
                      INITIAL GUESS DONE (   0.7 sec)
                      ------------------
             **** ENERGY FILE WAS UPDATED (input.en.tmp) ****
Finished Guess after   0.9 sec
Maximum memory used throughout the entire GUESS-calculation: 24.6 MB


           ************************************************************
           *        Program running with 8 parallel MPI-processes     *
           *              working on a common directory               *
           ************************************************************

-------------------------------------------------------------------------------------------
                                      ORCA LEAN-SCF
                              memory conserving SCF solver
-------------------------------------------------------------------------------------------

----------------------------------------D-I-I-S--------------------------------------------
Iteration    Energy (Eh)           Delta-E    RMSDP     MaxDP     DIISErr   Damp  Time(sec)
-------------------------------------------------------------------------------------------
               ***  Starting incremental Fock matrix formation  ***
    1    -782.6993069670115801     0.00e+00  3.98e-03  3.99e-02  1.33e-01  0.700   8.6
    2    -782.8625723992572603    -1.63e-01  3.14e-03  2.95e-02  8.26e-02  0.700   4.1
                               ***Turning on AO-DIIS***
    3    -782.9540741724872532    -9.15e-02  1.70e-03  1.74e-02  4.49e-02  0.700   4.0
    4    -783.0095332822256751    -5.55e-02  3.73e-03  4.01e-02  2.91e-02  0.000   3.9
                              *** Initializing SOSCF ***
---------------------------------------S-O-S-C-F--------------------------------------
Iteration    Energy (Eh)           Delta-E    RMSDP     MaxDP     MaxGrad    Time(sec)
--------------------------------------------------------------------------------------
    5    -783.1276305192254767    -1.18e-01  3.23e-04  3.87e-03  2.78e-03     4.1
               *** Restarting incremental Fock matrix formation ***
    6    -783.1278462103664424    -2.16e-04  2.35e-04  3.35e-03  1.56e-03     8.8
    7    -783.1279187723707764    -7.26e-05  1.88e-04  2.15e-03  7.05e-04     6.4
    8    -783.1279452885582941    -2.65e-05  4.36e-05  6.03e-04  1.44e-04     6.2
    9    -783.1279474565208147    -2.17e-06  2.08e-05  1.97e-04  6.41e-05     5.4
   10    -783.1279479181121133    -4.62e-07  6.50e-06  7.43e-05  3.14e-05     4.9
   11    -783.1279479753320629    -5.72e-08  2.89e-06  3.10e-05  1.60e-05     4.1
   12    -783.1279479839290616    -8.60e-09  1.12e-06  1.80e-05  5.25e-06     3.6
                 **** Energy Check signals convergence ****

               *****************************************************
               *                     SUCCESS                       *
               *           SCF CONVERGED AFTER  12 CYCLES          *
               *****************************************************

Recomputing exchange energy using gridx3       ... done (   16.459 sec)
Old exchange energy                            :    -37.407701384 Eh
New exchange energy                            :    -37.407744407 Eh
Exchange energy change after final integration :     -0.000043024 Eh
Total energy after final integration           :   -783.127990997 Eh
             **** ENERGY FILE WAS UPDATED (input.en.tmp) ****

----------------
TOTAL SCF ENERGY
----------------

Total Energy       :       -783.12799099652466 Eh          -21309.99601 eV

Components:
Nuclear Repulsion  :       1438.50493745408767 Eh           39143.70938 eV
Electronic Energy  :      -2221.63288542702867 Eh          -60453.70422 eV
One Electron Energy:      -3913.94499359796237 Eh         -106503.85783 eV
Two Electron Energy:       1692.31210817093393 Eh           46050.15361 eV

Virial components:
Potential Energy   :      -1560.79470374563016 Eh          -42471.38309 eV
Kinetic Energy     :        777.66671274910561 Eh           21161.38708 eV
Virial Ratio       :          2.00702264628007

DFT components:
N(Alpha)           :       72.000140512688 electrons
N(Beta)            :       72.000140512688 electrons
N(Total)           :      144.000281025376 electrons
E(XC)              :      -80.327037258555 Eh       

---------------
SCF CONVERGENCE
---------------

  Last Energy change         ...    8.5970e-09  Tolerance :   1.0000e-08
  Last MAX-Density change    ...    1.8034e-05  Tolerance :   1.0000e-07
  Last RMS-Density change    ...    1.1203e-06  Tolerance :   5.0000e-09
  Last DIIS Error            ...    2.7776e-03  Tolerance :   5.0000e-07
  Last Orbital Gradient      ...    5.2470e-06  Tolerance :   1.0000e-05
  Last Orbital Rotation      ...    1.4305e-05  Tolerance :   1.0000e-05


----------------
ORBITAL ENERGIES
----------------

  NO   OCC          E(Eh)            E(eV) 
   0   2.0000     -14.435935      -392.8218 
   1   2.0000     -14.435485      -392.8095 
   2   2.0000     -10.317999      -280.7670 
   3   2.0000     -10.313506      -280.6448 
   4   2.0000     -10.307040      -280.4688 
   5   2.0000     -10.304548      -280.4010 
   6   2.0000     -10.304058      -280.3877 
   7   2.0000     -10.303665      -280.3770 
   8   2.0000     -10.285061      -279.8707 
   9   2.0000     -10.282873      -279.8112 
  10   2.0000     -10.282780      -279.8087 
  11   2.0000     -10.282315      -279.7960 
  12   2.0000     -10.279544      -279.7206 
  13   2.0000     -10.278396      -279.6894 
  14   2.0000     -10.277635      -279.6687 
  15   2.0000     -10.276092      -279.6267 
  16   2.0000     -10.267232      -279.3856 
  17   2.0000     -10.265532      -279.3393 
  18   2.0000      -6.850361      -186.4078 
  19   2.0000      -6.849178      -186.3756 
  20   2.0000      -1.052599       -28.6427 
  21   2.0000      -1.050431       -28.5837 
  22   2.0000      -0.955303       -25.9951 
  23   2.0000      -0.954856       -25.9829 
  24   2.0000      -0.860692       -23.4206 
  25   2.0000      -0.854374       -23.2487 
  26   2.0000      -0.851626       -23.1739 
  27   2.0000      -0.850341       -23.1389 
  28   2.0000      -0.822192       -22.3730 
  29   2.0000      -0.820527       -22.3277 
  30   2.0000      -0.771533       -20.9945 
  31   2.0000      -0.754972       -20.5438 
  32   2.0000      -0.747927       -20.3521 
  33   2.0000      -0.705516       -19.1981 
  34   2.0000      -0.694511       -18.8986 
  35   2.0000      -0.676252       -18.4018 
  36   2.0000      -0.669548       -18.2193 
  37   2.0000      -0.621455       -16.9106 
  38   2.0000      -0.611996       -16.6532 
  39   2.0000      -0.574594       -15.6355 
  40   2.0000      -0.570620       -15.5274 
  41   2.0000      -0.568178       -15.4609 
  42   2.0000      -0.563399       -15.3309 
  43   2.0000      -0.559570       -15.2267 
  44   2.0000      -0.556261       -15.1366 
  45   2.0000      -0.543176       -14.7806 
  46   2.0000      -0.529836       -14.4176 
  47   2.0000      -0.526964       -14.3394 
  48   2.0000      -0.516877       -14.0649 
  49   2.0000      -0.512693       -13.9511 
  50   2.0000      -0.501597       -13.6492 
  51   2.0000      -0.495615       -13.4864 
  52   2.0000      -0.490089       -13.3360 
  53   2.0000      -0.485693       -13.2164 
  54   2.0000      -0.481134       -13.0923 
  55   2.0000      -0.474662       -12.9162 
  56   2.0000      -0.472618       -12.8606 
  57   2.0000      -0.463215       -12.6047 
  58   2.0000      -0.459342       -12.4993 
  59   2.0000      -0.455816       -12.4034 
  60   2.0000      -0.452038       -12.3006 
  61   2.0000      -0.438470       -11.9314 
  62   2.0000      -0.427763       -11.6400 
  63   2.0000      -0.420140       -11.4326 
  64   2.0000      -0.416278       -11.3275 
  65   2.0000      -0.392969       -10.6932 
  66   2.0000      -0.351269        -9.5585 
  67   2.0000      -0.344377        -9.3710 
  68   2.0000      -0.325862        -8.8672 
  69   2.0000      -0.323397        -8.8001 
  70   2.0000      -0.287539        -7.8243 
  71   2.0000      -0.279211        -7.5977 
  72   0.0000       0.045730         1.2444 
  73   0.0000       0.078194         2.1278 
  74   0.0000       0.087176         2.3722 
  75   0.0000       0.090260         2.4561 
  76   0.0000       0.114778         3.1233 
  77   0.0000       0.155456         4.2302 
  78   0.0000       0.181121         4.9285 
  79   0.0000       0.185402         5.0450 
  80   0.0000       0.194903         5.3036 
  81   0.0000       0.203558         5.5391 
  82   0.0000       0.217850         5.9280 
*Only the first 10 virtual orbitals were printed.

                    ********************************
                    * MULLIKEN POPULATION ANALYSIS *
                    ********************************

-----------------------
MULLIKEN ATOMIC CHARGES
-----------------------
   0 C :   -0.168812
   1 C :   -0.108760
   2 C :   -0.138257
   3 C :   -0.123819
   4 C :    0.166672
   5 C :    0.029686
   6 H :    0.104661
   7 H :    0.114896
   8 H :    0.117956
   9 H :    0.109726
  10 N :   -0.479254
  11 B :    0.031834
  12 H :   -0.024020
  13 H :    0.047588
  14 H :   -0.004152
  15 C :   -0.205022
  16 H :    0.127316
  17 H :    0.095883
  18 H :    0.138905
  19 C :   -0.202382
  20 H :    0.104348
  21 H :    0.123141
  22 H :    0.138866
  23 B :    0.015887
  24 H :    0.007478
  25 C :    0.016333
  26 C :    0.192823
  27 C :   -0.158003
  28 C :   -0.134671
  29 C :   -0.115591
  30 H :    0.107331
  31 C :   -0.133327
  32 H :    0.109553
  33 H :    0.114399
  34 H :    0.118626
  35 N :   -0.456344
  36 C :   -0.206400
  37 H :    0.127842
  38 H :    0.097293
  39 H :    0.138183
  40 C :   -0.193910
  41 H :    0.105351
  42 H :    0.129264
  43 H :    0.120885
Sum of atomic charges:    0.0000000

--------------------------------
MULLIKEN REDUCED ORBITAL CHARGES
--------------------------------
  0 C s       :     3.176477  s :     3.176477
      pz      :     0.998351  p :     2.955822
      px      :     0.947513
      py      :     1.009958
      dz2     :     0.002677  d :     0.036514
      dxz     :     0.006948
      dyz     :     0.004091
      dx2y2   :     0.011519
      dxy     :     0.011279

  1 C s       :     3.153447  s :     3.153447
      pz      :     0.999462  p :     2.920400
      px      :     0.981817
      py      :     0.939121
      dz2     :     0.003491  d :     0.034913
      dxz     :     0.003737
      dyz     :     0.005967
      dx2y2   :     0.011878
      dxy     :     0.009839

  2 C s       :     3.170892  s :     3.170892
      pz      :     0.980942  p :     2.931774
      px      :     0.976398
      py      :     0.974434
      dz2     :     0.003914  d :     0.035591
      dxz     :     0.005298
      dyz     :     0.004395
      dx2y2   :     0.009289
      dxy     :     0.012695

  3 C s       :     3.149635  s :     3.149635
      pz      :     1.015572  p :     2.940414
      px      :     0.936445
      py      :     0.988396
      dz2     :     0.002765  d :     0.033771
      dxz     :     0.006615
      dyz     :     0.003780
      dx2y2   :     0.010200
      dxy     :     0.010411

  4 C s       :     3.093131  s :     3.093131
      pz      :     0.959801  p :     2.682162
      px      :     0.779132
      py      :     0.943230
      dz2     :     0.005652  d :     0.058035
      dxz     :     0.011588
      dyz     :     0.006620
      dx2y2   :     0.018419
      dxy     :     0.015756

  5 C s       :     3.172992  s :     3.172992
      pz      :     0.950325  p :     2.765784
      px      :     0.904380
      py      :     0.911079
      dz2     :     0.003476  d :     0.031538
      dxz     :     0.005299
      dyz     :     0.004827
      dx2y2   :     0.009544
      dxy     :     0.008393

  6 H s       :     0.883173  s :     0.883173
      pz      :     0.003261  p :     0.012166
      px      :     0.002273
      py      :     0.006632

  7 H s       :     0.872820  s :     0.872820
      pz      :     0.002887  p :     0.012284
      px      :     0.007264
      py      :     0.002133

  8 H s       :     0.869807  s :     0.869807
      pz      :     0.002663  p :     0.012237
      px      :     0.004656
      py      :     0.004918

  9 H s       :     0.877694  s :     0.877694
      pz      :     0.003392  p :     0.012580
      px      :     0.002337
      py      :     0.006851

 10 N s       :     3.585579  s :     3.585579
      pz      :     1.378896  p :     3.853372
      px      :     1.237623
      py      :     1.236853
[...]
 95:   1510.99   0.002183   11.03  0.000451  ( 0.020864  0.003919 -0.000400)
 96:   1515.99   0.001158    5.85  0.000238  (-0.007588  0.013438  0.000468)
 97:   1519.57   0.003410   17.23  0.000700  (-0.014969  0.007161 -0.020613)
 98:   1536.87   0.003158   15.96  0.000641  (-0.015692 -0.007787 -0.018286)
 99:   1537.97   0.000168    0.85  0.000034  ( 0.004415 -0.000935 -0.003706)
100:   1552.72   0.029923  151.22  0.006014  ( 0.026971 -0.031515 -0.065524)
101:   1553.78   0.010533   53.23  0.002115  (-0.018749  0.001140 -0.041983)
102:   1656.98   0.140209  708.56  0.026406  (-0.099225 -0.070256 -0.107816)
103:   1662.27   0.009545   48.24  0.001792  (-0.028179 -0.022424 -0.022250)
104:   1668.07   0.075820  383.17  0.014185  ( 0.090512  0.038086  0.067391)
105:   1692.19   0.010270   51.90  0.001894  ( 0.025297  0.004990 -0.035059)
106:   1695.47   0.019804  100.08  0.003645  (-0.047450 -0.016981 -0.033244)
107:   1814.36   0.008064   40.75  0.001387  (-0.015608 -0.012570 -0.031391)
108:   2039.83   0.002064   10.43  0.000316  ( 0.007586 -0.012822 -0.009688)
109:   2175.36   0.008552   43.22  0.001227  ( 0.012406  0.024331  0.021931)
110:   2620.88   0.017424   88.06  0.002075  ( 0.012330  0.031014 -0.030997)
111:   2678.89   0.010496   53.04  0.001223  (-0.012483 -0.025097  0.020904)
112:   2985.49   0.015047   76.04  0.001573  (-0.010650 -0.017841 -0.033781)
113:   2989.54   0.013573   68.59  0.001417  ( 0.003065 -0.036092 -0.010237)
114:   2995.58   0.022825  115.35  0.002378  ( 0.023462 -0.035028 -0.024502)
115:   2999.77   0.019840  100.26  0.002064  ( 0.006227 -0.013790 -0.042837)
116:   3107.97   0.007675   38.79  0.000771  ( 0.005934  0.020346 -0.017930)
117:   3109.01   0.007773   39.28  0.000780  ( 0.024291 -0.004843  0.012910)
118:   3110.91   0.005199   26.27  0.000521  (-0.020284 -0.010420 -0.001215)
119:   3113.05   0.005982   30.23  0.000600  (-0.019343 -0.014695  0.003091)
120:   3167.96   0.003437   17.37  0.000339  ( 0.016870 -0.004679 -0.005665)
121:   3169.15   0.002970   15.01  0.000292  (-0.010167 -0.004402  0.013026)
122:   3172.71   0.003970   20.06  0.000391  (-0.014644  0.012608  0.004138)
123:   3186.31   0.004912   24.82  0.000481  (-0.000414  0.000503 -0.021923)
124:   3192.58   0.002514   12.70  0.000246  (-0.003052  0.014527  0.005037)
125:   3200.97   0.001548    7.82  0.000151  ( 0.002332  0.004775  0.011076)
126:   3211.77   0.001161    5.87  0.000113  (-0.004966 -0.009234 -0.001695)
127:   3212.15   0.002060   10.41  0.000200  ( 0.009899  0.007704  0.006542)
128:   3228.54   0.004923   24.88  0.000476  ( 0.017352 -0.012086 -0.005357)
129:   3232.15   0.005265   26.61  0.000508  (-0.011969 -0.003411  0.018801)
130:   3237.65   0.004576   23.13  0.000441  (-0.016433 -0.012596 -0.003515)
131:   3241.57   0.003411   17.24  0.000328  ( 0.013305  0.009854  0.007368)

* The epsilon (eps) is given for a Dirac delta lineshape.
** The dipole moment derivative (T) already includes vibrational overlap.

The first frequency considered to be a vibration is 6
The total number of vibrations considered is 126


--------------------------
THERMOCHEMISTRY AT 298.15K
--------------------------

Temperature         ...   298.15 K
Pressure            ...     1.00 atm
Total Mass          ...   266.00 AMU
Quasi RRHO          ...     True
Cut-Off Frequency   ...     1.00 cm^-1

Throughout the following assumptions are being made:
  (1) The electronic state is orbitally nondegenerate
  (2) There are no thermally accessible electronically excited states
  (3) Hindered rotations indicated by low frequency modes are not
      treated as such but are treated as vibrations and this may
      cause some error
  (4) All equations used are the standard statistical mechanics
      equations for an ideal gas
  (5) All vibrations are strictly harmonic

freq.       8.97  E(vib)   ...       0.58 
freq.      30.76  E(vib)   ...       0.55 
freq.      37.22  E(vib)   ...       0.54 
freq.      50.94  E(vib)   ...       0.52 
freq.      70.21  E(vib)   ...       0.50 
freq.      75.29  E(vib)   ...       0.49 
freq.     100.54  E(vib)   ...       0.46 
freq.     121.49  E(vib)   ...       0.44 
freq.     130.53  E(vib)   ...       0.43 
freq.     156.29  E(vib)   ...       0.40 
freq.     187.62  E(vib)   ...       0.36 
freq.     195.93  E(vib)   ...       0.36 
freq.     218.05  E(vib)   ...       0.33 
freq.     250.63  E(vib)   ...       0.30 
freq.     257.62  E(vib)   ...       0.30 
freq.     286.07  E(vib)   ...       0.27 
freq.     290.32  E(vib)   ...       0.27 
freq.     309.16  E(vib)   ...       0.26 
freq.     316.30  E(vib)   ...       0.25 
freq.     338.67  E(vib)   ...       0.23 
freq.     361.46  E(vib)   ...       0.22 
freq.     376.74  E(vib)   ...       0.21 
freq.     385.88  E(vib)   ...       0.20 
freq.     461.09  E(vib)   ...       0.16 
freq.     464.44  E(vib)   ...       0.16 
freq.     487.21  E(vib)   ...       0.15 
freq.     506.28  E(vib)   ...       0.14 
freq.     526.76  E(vib)   ...       0.13 
freq.     549.00  E(vib)   ...       0.12 
freq.     574.28  E(vib)   ...       0.11 
freq.     577.35  E(vib)   ...       0.11 
freq.     588.53  E(vib)   ...       0.10 
freq.     617.46  E(vib)   ...       0.09 
freq.     715.35  E(vib)   ...       0.07 
freq.     733.80  E(vib)   ...       0.06 
freq.     743.15  E(vib)   ...       0.06 
freq.     761.08  E(vib)   ...       0.06 
freq.     772.64  E(vib)   ...       0.05 
freq.     792.08  E(vib)   ...       0.05 
freq.     800.70  E(vib)   ...       0.05 
freq.     813.48  E(vib)   ...       0.05 
freq.     824.79  E(vib)   ...       0.04 
freq.     851.68  E(vib)   ...       0.04 
freq.     885.71  E(vib)   ...       0.04 
freq.     899.77  E(vib)   ...       0.03 
freq.     907.76  E(vib)   ...       0.03 
freq.     944.21  E(vib)   ...       0.03 
freq.     975.44  E(vib)   ...       0.03 
freq.     979.81  E(vib)   ...       0.02 
freq.     995.31  E(vib)   ...       0.02 
freq.     998.35  E(vib)   ...       0.02 
freq.    1011.45  E(vib)   ...       0.02 
freq.    1011.92  E(vib)   ...       0.02 
freq.    1055.86  E(vib)   ...       0.02 
freq.    1069.24  E(vib)   ...       0.02 
freq.    1084.54  E(vib)   ...       0.02 
freq.    1088.40  E(vib)   ...       0.02 
freq.    1089.11  E(vib)   ...       0.02 
freq.    1093.27  E(vib)   ...       0.02 
freq.    1096.98  E(vib)   ...       0.02 
freq.    1128.43  E(vib)   ...       0.01 
freq.    1129.09  E(vib)   ...       0.01 
freq.    1138.82  E(vib)   ...       0.01 
freq.    1150.83  E(vib)   ...       0.01 
freq.    1180.84  E(vib)   ...       0.01 
freq.    1189.64  E(vib)   ...       0.01 
freq.    1192.92  E(vib)   ...       0.01 
freq.    1195.50  E(vib)   ...       0.01 
freq.    1200.36  E(vib)   ...       0.01 
freq.    1201.17  E(vib)   ...       0.01 
freq.    1232.19  E(vib)   ...       0.01 
freq.    1250.82  E(vib)   ...       0.01 
freq.    1270.50  E(vib)   ...       0.01 
freq.    1277.37  E(vib)   ...       0.01 
freq.    1316.38  E(vib)   ...       0.01 
freq.    1320.58  E(vib)   ...       0.01 
freq.    1336.67  E(vib)   ...       0.01 
freq.    1342.03  E(vib)   ...       0.01 
freq.    1375.84  E(vib)   ...       0.01 
freq.    1389.96  E(vib)   ...       0.00 
freq.    1456.67  E(vib)   ...       0.00 
freq.    1459.52  E(vib)   ...       0.00 
freq.    1482.50  E(vib)   ...       0.00 
freq.    1485.42  E(vib)   ...       0.00 
freq.    1492.87  E(vib)   ...       0.00 
freq.    1496.76  E(vib)   ...       0.00 
freq.    1501.78  E(vib)   ...       0.00 
freq.    1502.72  E(vib)   ...       0.00 
freq.    1509.62  E(vib)   ...       0.00 
freq.    1510.99  E(vib)   ...       0.00 
freq.    1515.99  E(vib)   ...       0.00 
freq.    1519.57  E(vib)   ...       0.00 
freq.    1536.87  E(vib)   ...       0.00 
freq.    1537.97  E(vib)   ...       0.00 
freq.    1552.72  E(vib)   ...       0.00 
freq.    1553.78  E(vib)   ...       0.00 
freq.    1656.98  E(vib)   ...       0.00 
freq.    1662.27  E(vib)   ...       0.00 
freq.    1668.07  E(vib)   ...       0.00 
freq.    1692.19  E(vib)   ...       0.00 
freq.    1695.47  E(vib)   ...       0.00 
freq.    1814.36  E(vib)   ...       0.00 
freq.    2039.83  E(vib)   ...       0.00 
freq.    2175.36  E(vib)   ...       0.00 
freq.    2620.88  E(vib)   ...       0.00 
freq.    2678.89  E(vib)   ...       0.00 
freq.    2985.49  E(vib)   ...       0.00 
freq.    2989.54  E(vib)   ...       0.00 
freq.    2995.58  E(vib)   ...       0.00 
freq.    2999.77  E(vib)   ...       0.00 
freq.    3107.97  E(vib)   ...       0.00 
freq.    3109.01  E(vib)   ...       0.00 
freq.    3110.91  E(vib)   ...       0.00 
freq.    3113.05  E(vib)   ...       0.00 
freq.    3167.96  E(vib)   ...       0.00 
freq.    3169.15  E(vib)   ...       0.00 
freq.    3172.71  E(vib)   ...       0.00 
freq.    3186.31  E(vib)   ...       0.00 
freq.    3192.58  E(vib)   ...       0.00 
freq.    3200.97  E(vib)   ...       0.00 
freq.    3211.77  E(vib)   ...       0.00 
freq.    3212.15  E(vib)   ...       0.00 
freq.    3228.54  E(vib)   ...       0.00 
freq.    3232.15  E(vib)   ...       0.00 
freq.    3237.65  E(vib)   ...       0.00 
freq.    3241.57  E(vib)   ...       0.00 

------------
INNER ENERGY
------------

The inner energy is: U= E(el) + E(ZPE) + E(vib) + E(rot) + E(trans)
    E(el)   - is the total energy from the electronic structure calculation
              = E(kin-el) + E(nuc-el) + E(el-el) + E(nuc-nuc)
    E(ZPE)  - the the zero temperature vibrational energy from the frequency calculation
    E(vib)  - the the finite temperature correction to E(ZPE) due to population
              of excited vibrational states
    E(rot)  - is the rotational thermal energy
    E(trans)- is the translational thermal energy

Summary of contributions to the inner energy U:
Electronic energy                ...   -783.14785086 Eh
Zero point energy                ...      0.37910933 Eh     237.89 kcal/mol
Thermal vibrational correction   ...      0.01739033 Eh      10.91 kcal/mol
Thermal rotational correction    ...      0.00141627 Eh       0.89 kcal/mol
Thermal translational correction ...      0.00141627 Eh       0.89 kcal/mol
-----------------------------------------------------------------------
Total thermal energy                   -782.74851866 Eh


Summary of corrections to the electronic energy:
(perhaps to be used in another calculation)
Total thermal correction                  0.02022287 Eh      12.69 kcal/mol
Non-thermal (ZPE) correction              0.37910933 Eh     237.89 kcal/mol
-----------------------------------------------------------------------
Total correction                          0.39933220 Eh     250.58 kcal/mol


--------
ENTHALPY
--------

The enthalpy is H = U + kB*T
                kB is Boltzmann's constant
Total thermal energy              ...   -782.74851866 Eh 
Thermal Enthalpy correction       ...      0.00094421 Eh       0.59 kcal/mol
-----------------------------------------------------------------------
Total Enthalpy                    ...   -782.74757445 Eh


Note: Only C1 symmetry has been detected, increase convergence thresholds 
      if your molecule has a higher symmetry. Symmetry factor of 1.0 is   
      used for the rotational entropy correction. 
 

Note: Rotational entropy computed according to Herzberg 
Infrared and Raman Spectra, Chapter V,1, Van Nostrand Reinhold, 1945 
Point Group:  C1, Symmetry Number:   1  
Rotational constants in cm-1:     0.018408     0.005598     0.004791 

Vibrational entropy computed according to the QRRHO of S. Grimme
Chem.Eur.J. 2012 18 9955 using a reference frequency of 100.0 cm-1


-------
ENTROPY
-------

The entropy contributions are T*S = T*(S(el)+S(vib)+S(rot)+S(trans))
     S(el)   - electronic entropy
     S(vib)  - vibrational entropy
     S(rot)  - rotational entropy
     S(trans)- translational entropy
The entropies will be listed as multiplied by the temperature to get
units of energy

Electronic entropy                ...      0.00000000 Eh      0.00 kcal/mol
Vibrational entropy               ...      0.03117069 Eh     19.56 kcal/mol
Rotational entropy                ...      0.01636616 Eh     10.27 kcal/mol
Translational entropy             ...      0.02025683 Eh     12.71 kcal/mol
-----------------------------------------------------------------------
Final entropy term                ...      0.06779368 Eh     42.54 kcal/mol

In case the symmetry of your molecule has not been determined correctly
or in case you have a reason to use a different symmetry number we print 
out the resulting rotational entropy values for sn=1,12:

 non-linear molecules -----------------------------------
|  sn= 1 | S(rot)=       0.01636616 Eh     10.27 kcal/mol|
|  sn= 2 | S(rot)=       0.01571170 Eh      9.86 kcal/mol|
|  sn= 3 | S(rot)=       0.01532887 Eh      9.62 kcal/mol|
|  sn= 4 | S(rot)=       0.01505724 Eh      9.45 kcal/mol|
|  sn= 5 | S(rot)=       0.01484656 Eh      9.32 kcal/mol|
|  sn= 6 | S(rot)=       0.01467441 Eh      9.21 kcal/mol|
|  sn= 7 | S(rot)=       0.01452887 Eh      9.12 kcal/mol|
|  sn= 8 | S(rot)=       0.01440279 Eh      9.04 kcal/mol|
|  sn= 9 | S(rot)=       0.01429158 Eh      8.97 kcal/mol|
|  sn=10 | S(rot)=       0.01419210 Eh      8.91 kcal/mol|
|  sn=11 | S(rot)=       0.01410211 Eh      8.85 kcal/mol|
|  sn=12 | S(rot)=       0.01401996 Eh      8.80 kcal/mol|
 linear molecules ---------------------------------------
|  Dinfh | S(rot)=       0.01036860 Eh      6.51 kcal/mol|
|  Cinfv | S(rot)=       0.01102306 Eh      6.92 kcal/mol|
 --------------------------------------------------------


-------------------
GIBBS FREE ENERGY
-------------------

The Gibbs free energy is G = H - T*S

Total enthalpy                    ...   -782.74757445 Eh 
Total entropy correction          ...     -0.06779368 Eh    -42.54 kcal/mol
-----------------------------------------------------------------------
Final Gibbs free energy         ...   -782.81536813 Eh

For completeness - the Gibbs free energy minus the electronic energy
G-E(el)                           ...      0.33248273 Eh    208.64 kcal/mol


Maximum memory used throughout the entire PROP-calculation: 259.0 MB

--------------------------------
SUGGESTED CITATIONS FOR THIS RUN
--------------------------------

Below you find a list of papers that are relevant to this ORCA run
We neither can nor want to force you to cite these papers, but we appreciate if you do
You receive ORCA, which is the product of decades of hard work by many enthusiastic individuals, for free
The only thing we kindly ask in return is that you cite our papers,
We deeply appreciate it, if you show your appreciation for ORCA by not just citing the generic ORCA reference.

Please note that relegating all ORCA citations to the supporting information does *not* help us.
SI sections are not indexed - citations you put there will not count into any citation statistics
But we need these citations in order to attract the funding resources that allow us to do what we are doing

Therefore, if you are a happy ORCA user, please consider citing a few of the papers listed below in the main body of your paper

In addition to the list printed below, the program has created the file input.bibtex that contains the list in bibtex format
You can import this file easily into all common literature databanks and citation aid programs


List of essential papers. We consider these as the minimum necessary citations

  1. Neese, F.
     Software update: the ORCA program system, version 6.0
     WIRES Comput. Molec. Sci. 2025 15(1), e70019
     doi.org/10.1002/wcms.7019

List of papers to cite with high priority. The work reported in these papers was absolutely
necessary for this run to complete.
Our perspective: the developers of density functionals and basis sets usually get cited in chemistry papers
Good! But without the algorithms to do something with them, the functionals or basis sets would not do anything.
Hence, in our opinion, the algorithm design and method developments papers are equally worthy of getting cited

  1. Neese, F.
     An improvement of the resolution of the identity approximation for the formation of the Coulomb matrix
     J. Comp. Chem. 2003 24(14), 1740-1747
     doi.org/10.1002/jcc.10318
  2. Neese, F.; Wennmohs, F.; Hansen, A.; Becker, U.
     Efficient, approximate and parallel Hartree-Fock and hybrid DFT calculations. A 'chain-of-spheres' algorithm for the Hartree-Fock exchange
     Chem. Phys. 2009 356(1-3), 98-109
     doi.org/10.1016/j.chemphys.2008.10.036
  3. Grimme, S.; Antony, J.; Ehrlich, S.; Krieg, H.
     A consistent and accurate ab initio parametrization of density functional dispersion correction (DFT-D) for the 94 elements H-Pu
     J. Chem. Phys. 2010 132 , 154104
     doi.org/10.1063/1.3382344
  4. Bykov, D.; Petrenko, T.; Izsak, R.; Kossmann, S.; Becker, U.; Valeev, E.; Neese, F.
     Efficient implementation of the analytic second derivatives of Hartree-Fock and hybrid DFT energies: a detailed analysis of different approximations
     Molec. Phys. 2015 113 , 1961-1977
     doi.org/10.1080/00268976.2015.1025114
  5. Helmich-Paris, B.; de Souza, B.; Neese, F.; Izsák, R.
     An improved chain of spheres for exchange algorithm
     J. Chem. Phys. 2021 155(10), 104109
     doi.org/10.1063/5.0058766
  6. Neese, F.
     The SHARK Integral Generation and Digestion System
     J. Comp. Chem. 2022 44(3), 381
     doi.org/10.1002/jcc.26942

List of suggested additional citations. These are papers that are important in the 'surrounding' of 
of this run, or papers that preceded the highly important papers. If you like your results we are grateful for a citation.

  1. Izsak, R.; Neese, F.
     An overlap fitted chain of spheres exchange method
     J. Chem. Phys. 2011 135 , 144105
     doi.org/10.1063/1.3646921
  2. Izsak, R.; Hansen, A.; Neese, F.
     The resolution of identity and chain of spheres approximations for the LPNO-CCSD singles Fock term
     Molec. Phys. 2012 110 , 2413-2417
     doi.org/10.1080/00268976.2012.687466
  3. Neese, F.
     The ORCA program system
     WIRES Comput. Molec. Sci. 2012 2(1), 73-78
     doi.org/10.1002/wcms.81
  4. Izsak, R.; Neese, F.; Klopper, W.
     Robust fitting techniques in the chain of spheres approximation to the Fock exchange: The role of the complementary space
     J. Chem. Phys. 2013 139 , 
     doi.org/10.1063/1.4819264
  5. Neese, F.
     Software update: the ORCA program system, version 4.0
     WIRES Comput. Molec. Sci. 2018 8(1), 1-6
     doi.org/10.1002/wcms.1327
  6. Neese, F.; Wennmohs, F.; Becker, U.; Riplinger, C.
     The ORCA quantum chemistry program package
     J. Chem. Phys. 2020 152(22), 224108
     doi.org/10.1063/5.0004608
  7. Neese, F.
     Software update: The ORCA program system—Version 5.0
     WIRES Comput. Molec. Sci. 2022 12(1), e1606
     doi.org/10.1002/wcms.1606

List of optional additional citations

  1. Neese, F.
     Approximate second-order SCF convergence for spin unrestricted wavefunctions
     Chem. Phys. Lett. 2000 325(1-3), 93-98
     doi.org/10.1016/s0009-2614(00)00662-x

Timings for individual modules:

Sum of individual times          ...     2139.939 sec (=  35.666 min)
Startup calculation              ...       56.488 sec (=   0.941 min)   2.6 %
SCF iterations                   ...      997.516 sec (=  16.625 min)  46.6 %
Property integrals               ...      166.222 sec (=   2.770 min)   7.8 %
SCF Response                     ...      194.125 sec (=   3.235 min)   9.1 %
Property calculations            ...      319.163 sec (=   5.319 min)  14.9 %
SCF Gradient evaluation          ...      405.959 sec (=   6.766 min)  19.0 %
Geometry relaxation              ...        0.466 sec (=   0.008 min)   0.0 %
                             ****ORCA TERMINATED NORMALLY****
TOTAL RUN TIME: 0 days 0 hours 47 minutes 29 seconds 833 msec
