
                                 *****************
                                 * O   R   C   A *
                                 *****************

                                            #,                                       
                                            ###                                      
                                            ####                                     
                                            #####                                    
                                            ######                                   
                                           ########,                                 
                                     ,,################,,,,,                         
                               ,,#################################,,                 
                          ,,##########################################,,             
                       ,#########################################, ''#####,          
                    ,#############################################,,   '####,        
                  ,##################################################,,,,####,       
                ,###########''''           ''''###############################       
              ,#####''   ,,,,##########,,,,          '''####'''          '####       
            ,##' ,,,,###########################,,,                        '##       
           ' ,,###''''                  '''############,,,                           
         ,,##''                                '''############,,,,        ,,,,,,###''
      ,#''                                            '''#######################'''  
     '                                                          ''''####''''         
             ,#######,   #######,   ,#######,      ##                                
            ,#'     '#,  ##    ##  ,#'     '#,    #''#        ,####,    ,#,          
            ##       ##  ##   ,#'  ##            #'  '#       #'       ,# #          
            ##       ##  #######   ##           ,######,      #####,      #          
            '#,     ,#'  ##    ##  '#,     ,#' ,#      #,     #,   #      #          
             '#######'   ##     ##  '#######'  #'      '#     '####' #    #          



                #########################################################
                #                        -***-                          #
                #          Department of theory and spectroscopy        #
                #                                                       #
                #                      Frank Neese                      #
                #                                                       #
                #     Directorship, Architecture, Infrastructure        #
                #                    SHARK, DRIVERS                     #
                #        Core code/Algorithms in most modules           #
                #                                                       #
                #        Max Planck Institute fuer Kohlenforschung      #
                #                Kaiser Wilhelm Platz 1                 #
                #                 D-45470 Muelheim/Ruhr                 #
                #                      Germany                          #
                #                                                       #
                #                  All rights reserved                  #
                #                        -***-                          #
                #########################################################


                         Program Version 6.1.0  -  RELEASE   -
                                (GIT: $679e74b$)
                          ($2025-06-10 18:02:51 +0200$)


 With contributions from (in alphabetic order):
[Max-Planck-Institut fuer Kohlenforschung]                               
  Daniel Aravena         : Magnetic Suceptibility                        
  Michael Atanasov       : Ab Initio Ligand Field Theory (pilot matlab implementation)
  Alexander A. Auer      : GIAO ZORA, VPT2 properties, NMR spectrum      
  Ute Becker             : All parallelization in ORCA, NUMFREQ, NUMCALC 
  Giovanni Bistoni       : ED, misc. LED, open-shell LED, HFLD           
  Dmytro Bykov           : pre 5.0 version of the SCF Hessian            
  Marcos Casanova-Páez   : Triplet and SCS-CIS(D). UHF-(DLPNO)-IP/EA/STEOM-CCSD. UHF-CVS-IP/STEOM-CCSD   
  Vijay G. Chilkuri      : MRCI spin determinant printing, contributions to CSF-ICE 
  Pauline Colinet        : FMM embedding                                 
  Dipayan Datta          : RHF DLPNO-CCSD density                        
  Achintya Kumar Dutta   : EOM-CC, STEOM-CC                              
  Nicolas Foglia         : Exact transition moments, OPA infrastructure, MCD improvements    
  Dmitry Ganyushin       : Spin-Orbit,Spin-Spin,Magnetic field MRCI      
  Miquel Garcia-Rates    : C-PCM and meta-GGA Hessian, CCSD/C-PCM, Gaussian charge scheme 
  Tiago L. C. Gouveia    : GS-ROHF, GS-ROCIS                             
  Yang Guo               : DLPNO-NEVPT2, F12-NEVPT2, CIM, IAO-localization        
  Andreas Hansen         : Spin unrestricted coupled pair/coupled cluster methods 
  Ingolf Harden          : AUTO-CI MPn and infrastructure                
  Benjamin Helmich-Paris : MC-RPA, TRAH-(SCF,CASSCF), AVAS, COSX integrals, SCF dyn. polar., MC-PDFT, srDFT 
  Lee Huntington         : MR-EOM, pCC                                   
  Robert Izsak           : Overlap fitted RIJCOSX, COSX-SCS-MP3, EOM     
  Riya Kayal             : Wick's Theorem for AUTO-CI, AUTO-CI UHF-CCSDT 
  Emily Kempfer          : AUTO-CI RHF CISDT and CCSDT, approximate NEVPT4
  Christian Kollmar      : KDIIS, OOCD, Brueckner-CCSD(T), CCSD density, CASPT2, CASPT2-K, improved NEVPT2 
  Axel Koslowski         : Symmetry handling                             
  Simone Kossmann        : meta-GGA functionals, TD-DFT gradient, OOMP2, (MP2 Hessian; deprecated post 5.0) 
  Lucas Lang             : DCDCAS, Hyperfine gauge corrections, ICE-SOC+SSC
  Marvin Lechner         : AUTO-CI (C++ implementation), FIC-MRCC        
  Spencer Leger          : CASSCF response                               
  Dagmar Lenk            : GEPOL surface, SMD, ORCA-2-JSON               
  Dimitrios Liakos       : Extrapolation schemes; Compound Job, Property file
  Dimitrios Manganas     : Further ROCIS development; embedding schemes. LFT, Crystal Embedding 
  Dimitrios Pantazis     : SARC Basis sets                               
  Anastasios Papadopoulos: AUTO-CI, single reference methods and gradients 
  Taras Petrenko         : pre 6.0 DFT Hessian and TD-DFT gradient,  ECA, NRVS 
  Petra Pikulova         : Analytic Raman intensities                    
  Peter Pinski           : DLPNO-MP2, DLPNO-MP2 Gradient                 
  Shashank Vittal Rao    : ES-AILFT, MagRelax                            
  Christoph Reimann      : Effective Core Potentials                     
  Marius Retegan         : Local ZFS, SOC                                
  Christoph Riplinger    : Optimizer, TS searches, QM/MM, DLPNO-CCSD(T), (RO)-DLPNO pert. Triples 
  Michael Roemelt        : Original ROCIS implementation, recursive CI coupling coefficients
  Masaaki Saitow         : Open-shell DLPNO-CCSD energy and density      
  Barbara Sandhoefer     : DKH picture change effects                    
  Yorick L. A. Schmerwitz: GMF and freeze-and-release deltaSCF, NEB S-IDPP initial path                    
  Kantharuban Sivalingam : CASSCF convergence/infrastructure, NEVPT2, NEVPT3, NEVPT4(SD), FIC-MRCI and CEPA variants
  Bernardo de Souza      : ESD, SOC TD-DFT                               
  Georgi L. Stoychev     : AutoAux, RI-MP2 NMR, DLPNO-MP2 response, X2C  
  Van Anh Tran           : RI-MP2 g-tensors                              
  Willem Van den Heuvel  : Paramagnetic NMR                              
  Zikuan Wang            : NOTCH, Electric field optimization            
  Frank Wennmohs         : Technical directorship and infrastructure     
  Hang Xu                : AUTO-CI-Response properties                   
                                                                         
[FACCTs GmbH]                                                            
  Markus Bursch, Nicolas Foglia, Miquel Garcia-Rates, Ingolf Harden, Hagen Neugebauer, Anastasios Papadopoulos, 
  Christoph Riplinger, Bernardo de Souza, Georgi L. Stoychev                                                    
                                                                 
  APM, various basis sets, CI-OPT, improved COSX, DLPNO-Multilevel,           
  DOCKER, DRACO, updates on ESD, Fragmentator, GOAT, IRC, LR-CPCM, L-BFGS, MBIS, meta-GGA TD-DFT gradient, ML-optimized integration grids, 
  MM, NACMEs, nearIR, NEB, NEB-TS, NL-DFT gradient (VV10), 2- and 3-layer-ONIOM, interface openCOSMO-RS, QMMM,   
  Crystal-QMMM, RESP, rigid body optimization, SF, symmetry and pop. for TD-DFT, various functionals, SOLVATOR                                   
                                                                         
[Other institutions]                                                     
  V. Asgeirsson          : NEB                                           
  Christoph Bannwarth    : sTDA-DFT, sTD-DFT, PBEh-3c, B97-3c, D3        
  Giovanni Bistoni       : ETS/NOCV, ADLD/ADEX, COVALED                  
  Martin Brehm           : Molecular dynamics                            
  Ronald Cardenas        : ETS/NOCV                                      
  Martina Colucci        : COVALED                                       
  Sebastian Ehlert       : rSCAN, r2SCAN, r2SCAN-3c, D4, dhf basis sets  
  Marvin Friede          : D4 for Fr, Ra, Ac-Lr                          
  Lars Goerigk           : TD-DFT with DH, B97 family of functionals     
  Stefan Grimme          : VdW corrections, initial TS optimization, DFT functionals, gCP, sTDA/sTD-DF 
  Waldemar Hujo          : DFT-NL                                        
  H. Jonsson             : NEB                                           
  Holger Kruse           : gCP                                           
  Marcel Mueller         : wB97X-3c, vDZP basis set                      
  Hagen Neugebauer       : wr2SCAN, Native XTB                           
  Gianluca Regni         : ADLD/ADEX                                     
  Tobias Risthaus        : pre 6.0 range-separated hybrid DFT and stability analysis
  Lukas Wittmann         : regularized MP2, r2SCAN double-hybrids, wr2SCAN        
                                                                         
We gratefully acknowledge several colleagues who have allowed us to      
interface, adapt or use parts of their codes:                            
  Ed Valeev, F. Pavosevic, A. Kumar             : LibInt (2-el integral package), F12 methods 
  Garnet Chan, S. Sharma, J. Yang, R. Olivares  : DMRG                   
  Ulf Ekstrom                                   : XCFun DFT Library      
  Mihaly Kallay                                 : mrcc  (arbitrary order and MRCC methods)
  Frank Weinhold                                : gennbo (NPA and NBO analysis)           
  Simon Mueller                                 : openCOSMO-RS                            
  Christopher J. Cramer and Donald G. Truhlar   : smd solvation model                     
  S Lehtola, MJT Oliveira, MAL Marques          : LibXC Library                           
  Liviu Ungur et al                             : ANISO software                          


 Your calculation uses the libint2 library for the computation of 2-el integrals
 For citations please refer to: http://libint.valeyev.net

 Your ORCA version has been built with support for libXC version: 7.0.0
 For citations please refer to: https://libxc.gitlab.io

 This ORCA versions uses:
   CBLAS   interface :  Fast vector & matrix operations
   LAPACKE interface :  Fast linear algebra routines
   SCALAPACK package :  Parallel linear algebra routines
   Shared memory     :  Shared parallel matrices
   BLAS/LAPACK       :  OpenBLAS 0.3.29  USE64BITINT DYNAMIC_ARCH NO_AFFINITY Zen SINGLE_THREADED
        Core in use  :  Zen
   Copyright (c) 2011-2014, The OpenBLAS Project


  ***********************************
  * Starting time: Wed Jul 23 14:36:36 2025
  * Host name:     node066.cluster
  * Process ID:    4021785
  * Working dir.:  /scratch/53166903/_e0ifd0
  ***********************************

NOTE: MaxCore=3840 MB was set to SCF,MP2,MDCI,CIPSI,MRCI,RASCI and CIS
      => If you want to overwrite this, your respective input block should be placed after the MaxCore statement
Your calculation utilizes the atom-pairwise dispersion correction
with the zero-damping scheme (D30)


XCFun DFT library Copyright 2009-2010 Ulf Ekstrom and contributors.
See http://admol.org/xcfun for more information.
This is free software; see the source code for copying conditions.
There is ABSOLUTELY NO WARRANTY; not even for MERCHANTABILITY or FITNESS FOR A PARTICULAR PURPOSE.
For details see the documentation.
Scientific users of this library should cite U. Ekstrom, L. Visscher, R. Bast, A. J. Thorvaldsen and K. Ruud;
J.Chem.Theor.Comp. 2010, DOI: 10.1021/ct100117s
XCFun Version 0.99 

Warning: RI is on but no J-basis has been assigned. Assigning Def2/J (nothing to worry about!)
================================================================================

----- Orbital basis set information -----
Your calculation utilizes the basis: 6-31G**
   H-He, Li-Ne : W. J. Hehre, R. Ditchfield and J.A. Pople, J. Chem. Phys. 56, 2257 (1972).
                 Note: He and Ne are unpublished basis sets taken from the Gaussian program.
                 Note: Li and B from J. D. Dill and J. A. Pople, J. Chem. Phys. 62, 2921 (1975).
   Na - Ar     : M. M. Francl, W. J. Pietro, W. J. Hehre, J. S. Binkley, M. S. Gordon, 
                 D. J. DeFrees and J. A. Pople, J. Chem. Phys. 77, 3654 (1982).
   K - Zn      : V. A. Rassolov, J. A. Pople, M. A. Ratner, and T. L. Windus, J. Chem. Phys. 109, 1223 (1998).

----- AuxJ basis set information -----
Your calculation utilizes the auxiliary basis: def2/J
   H-Rn: F. Weigend, Phys. Chem. Chem. Phys. 8, 1057 (2006).
   Fr-Lr: K. Eichkorn, F. Weigend, O. Treutler, R. Ahlrichs; Theor. Chem. Acc. 97, 119 (1997).

================================================================================
                                        WARNINGS
                       Please study these warnings very carefully!
================================================================================


================================================================================
                                       INPUT FILE
================================================================================
NAME = input.inp
|  1> # Automatically generated ORCA input
|  2> 
|  3> # Number of cores
|  4> %pal nprocs 8 end
|  5> # RAM per core
|  6> %maxcore 3840
|  7> 
|  8> ! wB97X-D3 
|  9> ! 6-31G** 
| 10> ! TightSCF 
| 11> ! Freq 
| 12> ! NoSym 
| 13> 
| 14> %geom
| 15>   Calc_Hess true
| 16> end
| 17> %Output
| 18>   JSONPropFile True
| 19> End
| 20> 
| 21> 
| 22> *xyz 0 1 
| 23> C         0.39866200     -2.00789900      0.96565000
| 24> C         1.37293100     -1.03016300      1.14865700
| 25> C         0.99970900      0.22669800      1.60780900
| 26> C        -0.33474600      0.49489100      1.89846500
| 27> C        -1.30934800     -0.48922500      1.72147700
| 28> C        -0.94919300     -1.75942200      1.23247400
| 29> H         0.69422700     -2.98196800      0.58267800
| 30> H         2.41208800     -1.24534600      0.92122100
| 31> H         1.74645100      1.00221700      1.74827900
| 32> H        -0.61366700      1.47657600      2.26709100
| 33> N        -2.68994400     -0.25217600      2.00225100
| 34> B        -2.06513000     -2.84204800      0.95546600
| 35> H        -2.42087900     -3.62742600      1.78897800
| 36> H        -3.12591800     -2.22202700      0.49217700
| 37> H        -1.79316200     -3.52666800     -0.12323900
| 38> C        -3.14674200      1.11605100      1.84935100
| 39> H        -4.24103100      1.12412600      1.83731000
| 40> H        -2.81959000      1.78642800      2.66362700
| 41> H        -2.78967300      1.52155400      0.90013700
| 42> C        -3.13738600     -0.82718100      3.26484800
| 43> H        -2.73911600     -0.28094300      4.13710100
| 44> H        -4.23083100     -0.79883600      3.31022300
| 45> H        -2.81969000     -1.86861900      3.34257700
| 46> B        -2.88015300     -2.90684100     -0.61682000
| 47> H        -2.48722100     -2.14704600     -1.44840700
| 48> C        -4.06646100     -3.89677700     -0.90853800
| 49> C        -4.31035600     -4.38030400     -2.21562600
| 50> C        -4.98133100     -4.22988400      0.09719700
| 51> C        -5.46362800     -5.13146100     -2.47097400
| 52> C        -6.12228100     -4.98331900     -0.15656600
| 53> H        -4.80904600     -3.86062600      1.10498400
| 54> C        -6.36366500     -5.42326200     -1.45173500
| 55> H        -5.65882200     -5.50565700     -3.46973200
| 56> H        -6.81959400     -5.21055300      0.64307100
| 57> H        -7.25122900     -6.00791700     -1.67480100
| 58> N        -3.39087400     -4.07210000     -3.24732900
| 59> C        -3.87957600     -4.13407400     -4.60876900
| 60> H        -3.16326200     -3.62642600     -5.26200700
| 61> H        -4.00337500     -5.16386800     -4.98914600
| 62> H        -4.83772900     -3.61567500     -4.68704100
| 63> C        -2.07231300     -4.67364900     -3.12818700
| 64> H        -2.06790900     -5.72999700     -3.44851900
| 65> H        -1.35777300     -4.12203200     -3.74719300
| 66> H        -1.71973900     -4.63916100     -2.09722700
| 67> *
| 68> 
| 69> 
| 70>                          ****END OF INPUT****
================================================================================

                       ****************************
                       * Single Point Calculation *
                       ****************************

---------------------------------
CARTESIAN COORDINATES (ANGSTROEM)
---------------------------------
  C      0.398662   -2.007899    0.965650
  C      1.372931   -1.030163    1.148657
  C      0.999709    0.226698    1.607809
  C     -0.334746    0.494891    1.898465
  C     -1.309348   -0.489225    1.721477
  C     -0.949193   -1.759422    1.232474
  H      0.694227   -2.981968    0.582678
  H      2.412088   -1.245346    0.921221
  H      1.746451    1.002217    1.748279
  H     -0.613667    1.476576    2.267091
  N     -2.689944   -0.252176    2.002251
  B     -2.065130   -2.842048    0.955466
  H     -2.420879   -3.627426    1.788978
  H     -3.125918   -2.222027    0.492177
  H     -1.793162   -3.526668   -0.123239
  C     -3.146742    1.116051    1.849351
  H     -4.241031    1.124126    1.837310
  H     -2.819590    1.786428    2.663627
  H     -2.789673    1.521554    0.900137
  C     -3.137386   -0.827181    3.264848
  H     -2.739116   -0.280943    4.137101
  H     -4.230831   -0.798836    3.310223
  H     -2.819690   -1.868619    3.342577
  B     -2.880153   -2.906841   -0.616820
  H     -2.487221   -2.147046   -1.448407
  C     -4.066461   -3.896777   -0.908538
  C     -4.310356   -4.380304   -2.215626
  C     -4.981331   -4.229884    0.097197
  C     -5.463628   -5.131461   -2.470974
  C     -6.122281   -4.983319   -0.156566
  H     -4.809046   -3.860626    1.104984
  C     -6.363665   -5.423262   -1.451735
  H     -5.658822   -5.505657   -3.469732
  H     -6.819594   -5.210553    0.643071
  H     -7.251229   -6.007917   -1.674801
  N     -3.390874   -4.072100   -3.247329
  C     -3.879576   -4.134074   -4.608769
  H     -3.163262   -3.626426   -5.262007
  H     -4.003375   -5.163868   -4.989146
  H     -4.837729   -3.615675   -4.687041
  C     -2.072313   -4.673649   -3.128187
  H     -2.067909   -5.729997   -3.448519
  H     -1.357773   -4.122032   -3.747193
  H     -1.719739   -4.639161   -2.097227

----------------------------
CARTESIAN COORDINATES (A.U.)
----------------------------
  NO LB      ZA    FRAG     MASS         X           Y           Z
   0 C     6.0000    0    12.011    0.753362   -3.794379    1.824814
   1 C     6.0000    0    12.011    2.594464   -1.946726    2.170647
   2 C     6.0000    0    12.011    1.889176    0.428397    3.038319
   3 C     6.0000    0    12.011   -0.632578    0.935208    3.587579
   4 C     6.0000    0    12.011   -2.474309   -0.924501    3.253120
   5 C     6.0000    0    12.011   -1.793715   -3.324826    2.329038
   6 H     1.0000    0     1.008    1.311899   -5.635103    1.101102
   7 H     1.0000    0     1.008    4.558186   -2.353363    1.740855
   8 H     1.0000    0     1.008    3.300314    1.893916    3.303769
   9 H     1.0000    0     1.008   -1.159663    2.790324    4.284181
  10 N     7.0000    0    14.007   -5.083257   -0.476544    3.783706
  11 B     5.0000    0    10.810   -3.902530   -5.370692    1.805569
  12 H     1.0000    0     1.008   -4.574798   -6.854842    3.380678
  13 H     1.0000    0     1.008   -5.907129   -4.199022    0.930080
  14 H     1.0000    0     1.008   -3.388585   -6.664437   -0.232888
  15 C     6.0000    0    12.011   -5.946481    2.109031    3.494767
  16 H     1.0000    0     1.008   -8.014387    2.124290    3.472013
  17 H     1.0000    0     1.008   -5.328253    3.375860    5.033526
  18 H     1.0000    0     1.008   -5.271718    2.875320    1.701012
  19 C     6.0000    0    12.011   -5.928800   -1.563146    6.169669
  20 H     1.0000    0     1.008   -5.176179   -0.530905    7.817988
  21 H     1.0000    0     1.008   -7.995112   -1.509581    6.255415
  22 H     1.0000    0     1.008   -5.328442   -3.531178    6.316555
  23 B     5.0000    0    10.810   -5.442700   -5.493133   -1.165621
  24 H     1.0000    0     1.008   -4.700167   -4.057329   -2.737093
  25 C     6.0000    0    12.011   -7.684498   -7.363841   -1.716888
  26 C     6.0000    0    12.011   -8.145392   -8.277575   -4.186926
  27 C     6.0000    0    12.011   -9.413351   -7.993322    0.183676
  28 C     6.0000    0    12.011  -10.324761   -9.697056   -4.669464
  29 C     6.0000    0    12.011  -11.569434   -9.417108   -0.295867
  30 H     1.0000    0     1.008   -9.087780   -7.295526    2.088117
  31 C     6.0000    0    12.011  -12.025584  -10.248480   -2.743382
  32 H     1.0000    0     1.008  -10.693624  -10.404184   -6.556843
  33 H     1.0000    0     1.008  -12.887165   -9.846518    1.215228
  34 H     1.0000    0     1.008  -13.702837  -11.353318   -3.164915
  35 N     7.0000    0    14.007   -6.407823   -7.695154   -6.136562
  36 C     6.0000    0    12.011   -7.331336   -7.812268   -8.709311
  37 H     1.0000    0     1.008   -5.977699   -6.852952   -9.943752
  38 H     1.0000    0     1.008   -7.565282   -9.758296   -9.428120
  39 H     1.0000    0     1.008   -9.141983   -6.832636   -8.857224
  40 C     6.0000    0    12.011   -3.916104   -8.831917   -5.911417
  41 H     1.0000    0     1.008   -3.907782  -10.828125   -6.516756
  42 H     1.0000    0     1.008   -2.565819   -7.789512   -7.081169
  43 H     1.0000    0     1.008   -3.249836   -8.766744   -3.963185

--------------------------------
INTERNAL COORDINATES (ANGSTROEM)
--------------------------------
 C      0   0   0     0.000000000000     0.00000000     0.00000000
 C      1   0   0     1.392357472816     0.00000000     0.00000000
 C      2   1   0     1.389177740143   119.39204069     0.00000000
 C      3   2   1     1.391825615014   120.06291149     0.89063848
 C      4   3   2     1.396301583471   120.46006338   359.46159420
 C      1   2   3     1.396298308933   121.69320985   359.97400115
 H      1   2   3     1.087582934203   119.01556673   178.50789375
 H      2   1   3     1.085300939018   120.21215046   180.83560072
 H      3   2   1     1.085718727307   120.28060578   180.47675640
 H      4   3   2     1.085074878219   119.45453015   179.31795918
 N      5   4   3     1.428660765435   122.18475030   180.29392147
 B      6   1   2     1.579280809707   121.77512295   176.79906123
 H     12   6   1     1.199215663686   122.45638550    91.60071898
 H     12   6   1     1.313138956435   108.00035896   218.39421500
 H     12   6   1     1.306244852411   110.91705326   323.70874342
 C     11   5   4     1.450547464350   116.11097126    28.78388721
 H     16  11   5     1.094385035911   108.84482236   165.61707723
 H     16  11   5     1.104300302186   113.67760713   285.32835078
 H     16  11   5     1.092217089944   109.80690991    47.17736968
 C     11   5   4     1.457733267027   113.66508284   257.43267306
 H     20  11   5     1.103548930294   112.24566166    71.90884366
 H     20  11   5     1.094753076120   109.40620635   192.22667049
 H     20  11   5     1.091588591779   110.40608514   311.20619078
 B     14  12   6     1.326365332716    84.34852634   115.00788853
 H     24  14  12     1.192988238508   108.36240175   250.73622476
 C     24  14  12     1.572386513070   109.90005295   116.06773031
 C     26  24  14     1.414836446554   121.10542625   157.00279595
 C     26  24  14     1.399803657866   120.63825159   342.70248145
 C     27  26  24     1.399812753813   119.59964701   187.51207553
 C     28  26  24     1.390621034608   122.27941210   172.87025901
 H     28  26  24     1.087045642629   118.79506529   354.79620263
 C     30  28  26     1.388984815348   118.96970951     0.08998082
 H     29  27  26     1.084269748087   120.10184607   179.97349690
 H     30  28  26     1.085034581243   120.41527359   180.98809121
 H     32  30  28     1.085978712258   120.27067430   180.37139712
 N     27  26  24     1.415926528514   119.13164912     6.36979334
 C     36  27  26     1.447822259492   117.17150548   202.25235423
 H     37  36  27     1.094318108753   108.69416167   165.16915617
 H     37  36  27     1.104757229877   113.67142314   284.80002554
 H     37  36  27     1.092209320869   110.07102726    46.90802899
 C     36  27  26     1.454186757705   116.04516314    67.17979924
 H     41  36  27     1.103858271040   112.06786677    78.97512953
 H     41  36  27     1.094539699748   109.70181766   199.42930711
 H     41  36  27     1.090126767500   110.95636342   318.58590048

---------------------------
INTERNAL COORDINATES (A.U.)
---------------------------
 C      0   0   0     0.000000000000     0.00000000     0.00000000
 C      1   0   0     2.631174304141     0.00000000     0.00000000
 C      2   1   0     2.625165480210   119.39204069     0.00000000
 C      3   2   1     2.630169238554   120.06291149     0.89063848
 C      4   3   2     2.638627593121   120.46006338   359.46159420
 C      1   2   3     2.638621405141   121.69320985   359.97400115
 H      1   2   3     2.055233893571   119.01556673   178.50789375
 H      2   1   3     2.050921547632   120.21215046   180.83560072
 H      3   2   1     2.051711053080   120.28060578   180.47675640
 H      4   3   2     2.050494354632   119.45453015   179.31795918
 N      5   4   3     2.699777584950   122.18475030   180.29392147
 B      6   1   2     2.984408218904   121.77512295   176.79906123
 H     12   6   1     2.266189179874   122.45638550    91.60071898
 H     12   6   1     2.481473003444   108.00035896   218.39421500
 H     12   6   1     2.468445034900   110.91705326   323.70874342
 C     11   5   4     2.741137451876   116.11097126    28.78388721
 H     16  11   5     2.068088002934   108.84482236   165.61707723
 H     16  11   5     2.086825140739   113.67760713   285.32835078
 H     16  11   5     2.063991178783   109.80690991    47.17736968
 C     11   5   4     2.754716650988   113.66508284   257.43267306
 H     20  11   5     2.085405253637   112.24566166    71.90884366
 H     20  11   5     2.068783498135   109.40620635   192.22667049
 H     20  11   5     2.062803489374   110.40608514   311.20619078
 B     14  12   6     2.506467232360    84.34852634   115.00788853
 H     24  14  12     2.254421051769   108.36240175   250.73622476
 C     24  14  12     2.971379886373   109.90005295   116.06773031
 C     26  24  14     2.673653408278   121.10542625   157.00279595
 C     26  24  14     2.645245554627   120.63825159   342.70248145
 C     27  26  24     2.645262743476   119.59964701   187.51207553
 C     28  26  24     2.627892911479   122.27941210   172.87025901
 H     28  26  24     2.054218559641   118.79506529   354.79620263
 C     30  28  26     2.624800905182   118.96970951     0.08998082
 H     29  27  26     2.048972879180   120.10184607   179.97349690
 H     30  28  26     2.050418204384   120.41527359   180.98809121
 H     32  30  28     2.052202353436   120.27067430   180.37139712
 N     27  26  24     2.675713364645   119.13164912     6.36979334
 C     36  27  26     2.735987561035   117.17150548   202.25235423
 H     37  36  27     2.067961528933   108.69416167   165.16915617
 H     37  36  27     2.087688608937   113.67142314   284.80002554
 H     37  36  27     2.063976497359   110.07102726    46.90802899
 C     36  27  26     2.748014719638   116.04516314    67.17979924
 H     41  36  27     2.085989822930   112.06786677    78.97512953
 H     41  36  27     2.068380275229   109.70181766   199.42930711
 H     41  36  27     2.060041041832   110.95636342   318.58590048

---------------------
BASIS SET INFORMATION
---------------------
There are 4 groups of distinct atoms

 Group   1 Type C   : 10s4p1d contracted to 3s2p1d pattern {631/31/1}
 Group   2 Type H   : 4s1p contracted to 2s1p pattern {31/1}
 Group   3 Type N   : 10s4p1d contracted to 3s2p1d pattern {631/31/1}
 Group   4 Type B   : 10s4p1d contracted to 3s2p1d pattern {631/31/1}

Atom   0C    basis set group =>   1
Atom   1C    basis set group =>   1
Atom   2C    basis set group =>   1
Atom   3C    basis set group =>   1
Atom   4C    basis set group =>   1
Atom   5C    basis set group =>   1
Atom   6H    basis set group =>   2
Atom   7H    basis set group =>   2
Atom   8H    basis set group =>   2
Atom   9H    basis set group =>   2
Atom  10N    basis set group =>   3
Atom  11B    basis set group =>   4
Atom  12H    basis set group =>   2
Atom  13H    basis set group =>   2
Atom  14H    basis set group =>   2
Atom  15C    basis set group =>   1
Atom  16H    basis set group =>   2
Atom  17H    basis set group =>   2
Atom  18H    basis set group =>   2
Atom  19C    basis set group =>   1
Atom  20H    basis set group =>   2
Atom  21H    basis set group =>   2
Atom  22H    basis set group =>   2
Atom  23B    basis set group =>   4
Atom  24H    basis set group =>   2
Atom  25C    basis set group =>   1
Atom  26C    basis set group =>   1
Atom  27C    basis set group =>   1
Atom  28C    basis set group =>   1
Atom  29C    basis set group =>   1
Atom  30H    basis set group =>   2
Atom  31C    basis set group =>   1
Atom  32H    basis set group =>   2
Atom  33H    basis set group =>   2
Atom  34H    basis set group =>   2
Atom  35N    basis set group =>   3
Atom  36C    basis set group =>   1
Atom  37H    basis set group =>   2
Atom  38H    basis set group =>   2
Atom  39H    basis set group =>   2
Atom  40C    basis set group =>   1
Atom  41H    basis set group =>   2
Atom  42H    basis set group =>   2
Atom  43H    basis set group =>   2
---------------------------------
AUXILIARY/J BASIS SET INFORMATION
---------------------------------
There are 4 groups of distinct atoms

 Group   1 Type C   : 12s5p4d2f1g contracted to 6s4p3d1f1g pattern {711111/2111/211/2/1}
 Group   2 Type H   : 5s2p1d contracted to 3s1p1d pattern {311/2/1}
 Group   3 Type N   : 12s5p4d2f1g contracted to 6s4p3d1f1g pattern {711111/2111/211/2/1}
 Group   4 Type B   : 12s5p4d2f1g contracted to 6s4p3d1f1g pattern {711111/2111/211/2/1}

Atom   0C    basis set group =>   1
Atom   1C    basis set group =>   1
Atom   2C    basis set group =>   1
Atom   3C    basis set group =>   1
Atom   4C    basis set group =>   1
Atom   5C    basis set group =>   1
Atom   6H    basis set group =>   2
Atom   7H    basis set group =>   2
Atom   8H    basis set group =>   2
Atom   9H    basis set group =>   2
Atom  10N    basis set group =>   3
Atom  11B    basis set group =>   4
Atom  12H    basis set group =>   2
Atom  13H    basis set group =>   2
Atom  14H    basis set group =>   2
Atom  15C    basis set group =>   1
Atom  16H    basis set group =>   2
Atom  17H    basis set group =>   2
Atom  18H    basis set group =>   2
Atom  19C    basis set group =>   1
Atom  20H    basis set group =>   2
Atom  21H    basis set group =>   2
Atom  22H    basis set group =>   2
Atom  23B    basis set group =>   4
Atom  24H    basis set group =>   2
Atom  25C    basis set group =>   1
Atom  26C    basis set group =>   1
Atom  27C    basis set group =>   1
Atom  28C    basis set group =>   1
Atom  29C    basis set group =>   1
Atom  30H    basis set group =>   2
Atom  31C    basis set group =>   1
Atom  32H    basis set group =>   2
Atom  33H    basis set group =>   2
Atom  34H    basis set group =>   2
Atom  35N    basis set group =>   3
Atom  36C    basis set group =>   1
Atom  37H    basis set group =>   2
Atom  38H    basis set group =>   2
Atom  39H    basis set group =>   2
Atom  40C    basis set group =>   1
Atom  41H    basis set group =>   2
Atom  42H    basis set group =>   2
Atom  43H    basis set group =>   2


           ************************************************************
           *        Program running with 8 parallel MPI-processes     *
           *              working on a common directory               *
           ************************************************************
------------------------------------------------------------------------------
                             ORCA STARTUP CALCULATIONS
                           -- RI-GTO INTEGRALS CHOSEN --
------------------------------------------------------------------------------
------------------------------------------------------------------------------
                   ___                                                        
                  /   \      - P O W E R E D   B Y -                         
                 /     \                                                     
                 |  |  |   _    _      __       _____    __    __             
                 |  |  |  | |  | |    /  \     |  _  \  |  |  /  |          
                  \  \/   | |  | |   /    \    | | | |  |  | /  /          
                 / \  \   | |__| |  /  /\  \   | |_| |  |  |/  /          
                |  |  |   |  __  | /  /__\  \  |    /   |      \           
                |  |  |   | |  | | |   __   |  |    \   |  |\   \          
                \     /   | |  | | |  |  |  |  | |\  \  |  | \   \       
                 \___/    |_|  |_| |__|  |__|  |_| \__\ |__|  \__/        
                                                                              
                      - O R C A' S   B I G   F R I E N D -                    
                                      &                                       
                       - I N T E G R A L  F E E D E R -                       
                                                                              
 v1 FN, 2020, v2 2021, v3 2022-2024                                           
------------------------------------------------------------------------------


----------------------
SHARK INTEGRAL PACKAGE
----------------------

Number of atoms                             ...     44
Number of basis functions                   ...    400
Number of shells                            ...    192
Maximum angular momentum                    ...      2
Integral batch strategy                     ... SHARK/LIBINT Hybrid
RI-J (if used) integral strategy            ... SPLIT-RIJ (Revised 2003 algorithm where possible)
Printlevel                                  ...      1
Contraction scheme used                     ... SEGMENTED contraction
Prescreening option                         ... SCHWARTZ
   Thresh                                   ... 2.500e-11
   Tcut                                     ... 2.500e-12
   Tpresel                                  ... 2.500e-12 
Coulomb Range Separation                    ... NOT USED
Exchange Range Separation                   ... Long Range
   Mu parameter                             ... 2.500e-01
   Scaling (regular/separated)              ... 1.957e-01 8.043e-01
Robust (split-)RI terms used:
  metric    (central integrals)             ... YES
  density   (r.h.s.  integrals)             ... YES
  potential (l.h.s.  integrals)             ... YES
Multipole approximations                    ... NOT USED
Finite Nucleus Model                        ... NOT USED
CABS basis                                  ... NOT available
Auxiliary Coulomb fitting basis             ... AVAILABLE
   # of basis functions in Aux-J            ...   1244
   # of shells in Aux-J                     ...    420
   Maximum angular momentum in Aux-J        ...      4
Auxiliary J/K fitting basis                 ... NOT available
Auxiliary Correlation fitting basis         ... NOT available
Auxiliary 'external' fitting basis          ... NOT available

Checking pre-screening integrals            ... done (  0.0 sec) Dimension = 192
   => SHARK Basis and OBASIS are compatible. Storing Pre-screening
Shell pair information
Shell pair cut-off parameter TPreSel        ...   2.5e-12
Total number of shell pairs                 ...     18528
Shell pairs after pre-screening             ...     12347
Total number of primitive shell pairs       ...     88902
Primitive shell pairs kept                  ...     34726
          la=0 lb=0:   3983 shell pairs
          la=1 lb=0:   4646 shell pairs
          la=1 lb=1:   1420 shell pairs
          la=2 lb=0:   1374 shell pairs
          la=2 lb=1:    802 shell pairs
          la=2 lb=2:    122 shell pairs

Checking whether 4 symmetric matrices of dimension 400 fit in memory
:Max Core in MB      =   3840.00
 MB in use           =     19.53
 MB left             =   3820.47
 MB needed           =      2.45
 Data fit in memory  = YES
Calculating RI/J V-Matrix + Cholesky decomp.... done (  0.1 sec)
Calculating Nuclear repulsion               ... done (  0.0 sec) ENN=   1438.504937454088 Eh

Diagonalization of the overlap matrix:
Smallest eigenvalue                        ... 4.172e-04
Time for diagonalization                   ...    0.022 sec
Threshold for overlap eigenvalues          ... 1.000e-07
Number of eigenvalues below threshold      ... 0
Time for construction of square roots      ...    0.012 sec
Total time needed                          ...    0.037 sec

-------------------
DFT GRID GENERATION
-------------------

General Integration Accuracy     IntAcc      ... 4.388
Radial Grid Type                 RadialGrid  ... OptM3 with GC (2021)
Angular Grid (max. ang.)         AngularGrid ... 4 (Lebedev-302)
Angular grid pruning method      GridPruning ... 4 (adaptive)
Weight generation scheme         WeightScheme... mBecke (2022)
Basis function cutoff            BFCut       ... 1.0000e-11
Integration weight cutoff        WCut        ... 1.0000e-14
Partially contracted basis set               ... off
Rotationally invariant grid construction     ... off
Angular grids for H and He will be reduced by one unit

Total number of grid points                  ...   195110
Total number of batches                      ...     3072
Average number of points per batch           ...       63
Average number of grid points per atom       ...     4434

--------------------
COSX GRID GENERATION
--------------------

GRIDX 1
-------
General Integration Accuracy     IntAcc      ... 3.816
Radial Grid Type                 RadialGrid  ... OptM3 with GC (2021)
Angular Grid (max. ang.)         AngularGrid ... 1 (Lebedev-50)
Angular grid pruning method      GridPruning ... 4 (adaptive)
Weight generation scheme         WeightScheme... mBecke (2022)
Basis function cutoff            BFCut       ... 1.0000e-11
Integration weight cutoff        WCut        ... 1.0000e-14
Partially contracted basis set               ... on
Rotationally invariant grid construction     ... off
Angular grids for H and He will be reduced by one unit

Total number of grid points                  ...    24849
Total number of batches                      ...      219
Average number of points per batch           ...      113
Average number of grid points per atom       ...      565
UseSFitting                                  ... on

GRIDX 2
-------
General Integration Accuracy     IntAcc      ... 4.020
Radial Grid Type                 RadialGrid  ... OptM3 with GC (2021)
Angular Grid (max. ang.)         AngularGrid ... 2 (Lebedev-110)
Angular grid pruning method      GridPruning ... 4 (adaptive)
Weight generation scheme         WeightScheme... mBecke (2022)
Basis function cutoff            BFCut       ... 1.0000e-11
Integration weight cutoff        WCut        ... 1.0000e-14
Partially contracted basis set               ... on
Rotationally invariant grid construction     ... off
Angular grids for H and He will be reduced by one unit

Total number of grid points                  ...    52380
Total number of batches                      ...      433
Average number of points per batch           ...      120
Average number of grid points per atom       ...     1190
UseSFitting                                  ... on

GRIDX 3
-------
General Integration Accuracy     IntAcc      ... 4.338
Radial Grid Type                 RadialGrid  ... OptM3 with GC (2021)
Angular Grid (max. ang.)         AngularGrid ... 3 (Lebedev-194)
Angular grid pruning method      GridPruning ... 4 (adaptive)
Weight generation scheme         WeightScheme... mBecke (2022)
Basis function cutoff            BFCut       ... 1.0000e-11
Integration weight cutoff        WCut        ... 1.0000e-14
Partially contracted basis set               ... on
Rotationally invariant grid construction     ... off
Angular grids for H and He will be reduced by one unit

Total number of grid points                  ...   114114
Total number of batches                      ...      913
Average number of points per batch           ...      124
Average number of grid points per atom       ...     2594
UseSFitting                                  ... on
Grids setup in   2.6 sec
Initializing property integral containers    ... done (  0.0 sec)

SHARK setup successfully completed in   3.3 seconds

Maximum memory used throughout the entire STARTUP-calculation: 53.7 MB


           ************************************************************
           *        Program running with 8 parallel MPI-processes     *
           *              working on a common directory               *
           ************************************************************
-------------------------------------------------------------------------------
                                 ORCA GUESS
                   Start orbitals & Density for SCF / CASSCF
-------------------------------------------------------------------------------

------------
SCF SETTINGS
------------
Hamiltonian:
 Density Functional     Method          .... DFT(GTOs)
 Exchange Functional    Exchange        .... WB97X-D3
 Correlation Functional Correlation     .... WB97X-D3
 Gradients option       PostSCFGGA      .... off
 Hybrid DFT is turned on
   Fraction HF Exchange ScalHFX         ....  0.195728
   Scaling of DF-GGA-X  ScalDFX         ....  0.000000
   Scaling of DF-GGA-C  ScalDFC         ....  1.000000
   Scaling of DF-LDA-C  ScalLDAC        ....  1.000000
   Perturbative correction              ....  0.000000
 Long-range corrected/Screened/Range-Separated Hybrid DFT is turned on
   Amount of maximum screened exact exchange              ....  0.804272
   Range separation parameter mu (erf(mu*r12)/r12)        ....  0.250000
 RI-approximation to the Coulomb term is turned on
   Number of AuxJ basis functions       .... 1244
   RIJ-COSX (HFX calculated with COS-X)).... on


General Settings:
 Integral files         IntName         .... input
 Hartree-Fock type      HFTyp           .... RHF
 Total Charge           Charge          ....    0
 Multiplicity           Mult            ....    1
 Number of Electrons    NEL             ....  144
 Basis Dimension        Dim             ....  400
 Nuclear Repulsion      ENuc            ....   1438.5049374541 Eh

Convergence Acceleration:
 AO-DIIS                CNVDIIS         .... on
   Start iteration      DIISMaxIt       ....    12
   Startup error        DIISStart       ....  0.200000
   # of expansion vecs  DIISMaxEq       ....     5
   Bias factor          DIISBfac        ....   1.050
   Max. coefficient     DIISMaxC        ....  10.000
 MO-DIIS                CNVKDIIS        .... off
 Trust-Rad. Augm. Hess. CNVTRAH         .... auto
   Auto Start mean grad. ratio tolernc. ....  1.125000
   Auto Start start iteration           ....    50
   Auto Start num. interpolation iter.  ....    10
   Max. Number of Micro iterations      ....    24
   Max. Number of Macro iterations      .... Maxiter - #DIIS iter
   Number of Davidson start vectors     ....     2
   Converg. threshold    (grad. norm)   ....   1.000e-05
   Grad. Scal. Fac. for Micro threshold ....   0.100
   Minimum threshold for Micro iter.    ....   1.000e-02
   NR start threshold (gradient norm)   ....   1.000e-04
   Initial trust radius                 ....   0.400
   Minimum AH scaling param. (alpha)    ....   1.000
   Maximum AH scaling param. (alpha)    .... 1000.000
   Quad. conv. algorithm                .... NR
   White noise on init. David. guess    .... on
   Maximum white noise                  ....   0.010
   Pseudo random numbers                .... off
   Inactive MOs                         .... canonical
   Orbital update algorithm             .... Taylor
   Preconditioner                       .... Diag
   Full preconditioner red. dimension   ....   250
 SOSCF                 CNVSOSCF           .... on
   Start iteration     SOSCFMaxIt         ....   150
   Startup grad/error  SOSCFStart         ....  0.003300
   Hessian update      SOSCFHessUp        .... L-BFGS
   Autom. constraints  SOSCFAutoConstrain .... off
 Level Shifting         CNVShift        .... on
   Level shift para.    LevelShift      ....    0.2500
   Turn off err/grad.   ShiftErr        ....    0.0010
 Zerner damping         CNVZerner       .... off
 Static damping         CNVDamp         .... on
   Fraction old density DampFac         ....    0.7000
   Max. Damping (<1)    DampMax         ....    0.9800
   Min. Damping (>=0)   DampMin         ....    0.0000
   Turn off err/grad.   DampErr         ....    0.1000

SCF Procedure:
 Maximum # iterations   MaxIter         ....   125
 SCF integral mode      SCFMode         .... Direct
   Integral package                     .... SHARK and LIBINT hybrid scheme
 Reset frequency        DirectResetFreq ....    20
 Integral Threshold     Thresh          ....  2.500e-11 Eh
 Primitive CutOff       TCut            ....  2.500e-12 Eh

Convergence Tolerance:
 Convergence Check Mode ConvCheckMode   .... Total+1el-Energy
 Convergence forced     ConvForced      .... 0
 Energy Change          TolE            ....  1.000e-08 Eh
 1-El. energy change                    ....  1.000e-05 Eh
 Orbital Gradient       TolG            ....  1.000e-05
 Orbital Rotation angle TolX            ....  1.000e-05
 DIIS Error             TolErr          ....  5.000e-07

------------------------------
INITIAL GUESS: MODEL POTENTIAL
------------------------------
Loading Hartree-Fock densities                     ... done
Calculating cut-offs                               ... done
Initializing the effective Hamiltonian             ... done
Setting up the integral package (SHARK)            ... done
Starting the Coulomb interaction                   ... done (   0.3 sec)
Making the grid                                    ... done (   0.3 sec)
Mapping shells                                     ... done
Starting the XC term evaluation                    ... done (   0.1 sec)
  promolecular density results
     # of electrons  =    143.982217879
     EX              =   -109.658332567
     EC              =     -4.755312846
     EX+EC           =   -114.413645412
Transforming the Hamiltonian                       ... done (   0.0 sec)
Diagonalizing the Hamiltonian                      ... done (   0.0 sec)
Back transforming the eigenvectors                 ... done (   0.0 sec)
Now organizing SCF variables                       ... done
                      ------------------
                      INITIAL GUESS DONE (   0.8 sec)
                      ------------------
             **** ENERGY FILE WAS UPDATED (input.en.tmp) ****
Finished Guess after   1.2 sec
Maximum memory used throughout the entire GUESS-calculation: 24.6 MB


           ************************************************************
           *        Program running with 8 parallel MPI-processes     *
           *              working on a common directory               *
           ************************************************************

-------------------------------------------------------------------------------------------
                                      ORCA LEAN-SCF
                              memory conserving SCF solver
-------------------------------------------------------------------------------------------

----------------------------------------D-I-I-S--------------------------------------------
Iteration    Energy (Eh)           Delta-E    RMSDP     MaxDP     DIISErr   Damp  Time(sec)
-------------------------------------------------------------------------------------------
               ***  Starting incremental Fock matrix formation  ***
    1    -782.6993069670115801     0.00e+00  3.98e-03  3.99e-02  1.33e-01  0.700   8.9
    2    -782.8625723992572603    -1.63e-01  3.14e-03  2.95e-02  8.26e-02  0.700   3.9
                               ***Turning on AO-DIIS***
    3    -782.9540741724872532    -9.15e-02  1.70e-03  1.74e-02  4.49e-02  0.700   3.8
    4    -783.0095332822256751    -5.55e-02  3.73e-03  4.01e-02  2.91e-02  0.000   3.6
                              *** Initializing SOSCF ***
---------------------------------------S-O-S-C-F--------------------------------------
Iteration    Energy (Eh)           Delta-E    RMSDP     MaxDP     MaxGrad    Time(sec)
--------------------------------------------------------------------------------------
    5    -783.1276305192254767    -1.18e-01  3.23e-04  3.87e-03  2.78e-03     3.9
               *** Restarting incremental Fock matrix formation ***
    6    -783.1278462103664424    -2.16e-04  2.35e-04  3.35e-03  1.56e-03     8.4
    7    -783.1279187723707764    -7.26e-05  1.88e-04  2.15e-03  7.05e-04     6.1
    8    -783.1279452885582941    -2.65e-05  4.36e-05  6.03e-04  1.44e-04     5.9
    9    -783.1279474565208147    -2.17e-06  2.08e-05  1.97e-04  6.41e-05     5.2
   10    -783.1279479181121133    -4.62e-07  6.50e-06  7.43e-05  3.14e-05     4.7
   11    -783.1279479753320629    -5.72e-08  2.89e-06  3.10e-05  1.60e-05     4.0
   12    -783.1279479839290616    -8.60e-09  1.12e-06  1.80e-05  5.25e-06     3.4
                 **** Energy Check signals convergence ****

               *****************************************************
               *                     SUCCESS                       *
               *           SCF CONVERGED AFTER  12 CYCLES          *
               *****************************************************

Recomputing exchange energy using gridx3       ... done (   16.000 sec)
Old exchange energy                            :    -37.407701384 Eh
New exchange energy                            :    -37.407744407 Eh
Exchange energy change after final integration :     -0.000043024 Eh
Total energy after final integration           :   -783.127990997 Eh
             **** ENERGY FILE WAS UPDATED (input.en.tmp) ****

----------------
TOTAL SCF ENERGY
----------------

Total Energy       :       -783.12799099652466 Eh          -21309.99601 eV

Components:
Nuclear Repulsion  :       1438.50493745408767 Eh           39143.70938 eV
Electronic Energy  :      -2221.63288542702867 Eh          -60453.70422 eV
One Electron Energy:      -3913.94499359796237 Eh         -106503.85783 eV
Two Electron Energy:       1692.31210817093393 Eh           46050.15361 eV

Virial components:
Potential Energy   :      -1560.79470374563016 Eh          -42471.38309 eV
Kinetic Energy     :        777.66671274910561 Eh           21161.38708 eV
Virial Ratio       :          2.00702264628007

DFT components:
N(Alpha)           :       72.000140512688 electrons
N(Beta)            :       72.000140512688 electrons
N(Total)           :      144.000281025376 electrons
E(XC)              :      -80.327037258555 Eh       

---------------
SCF CONVERGENCE
---------------

  Last Energy change         ...    8.5970e-09  Tolerance :   1.0000e-08
  Last MAX-Density change    ...    1.8034e-05  Tolerance :   1.0000e-07
  Last RMS-Density change    ...    1.1203e-06  Tolerance :   5.0000e-09
  Last DIIS Error            ...    2.7776e-03  Tolerance :   5.0000e-07
  Last Orbital Gradient      ...    5.2470e-06  Tolerance :   1.0000e-05
  Last Orbital Rotation      ...    1.4305e-05  Tolerance :   1.0000e-05


----------------
ORBITAL ENERGIES
----------------

  NO   OCC          E(Eh)            E(eV) 
   0   2.0000     -14.435935      -392.8218 
   1   2.0000     -14.435485      -392.8095 
   2   2.0000     -10.317999      -280.7670 
   3   2.0000     -10.313506      -280.6448 
   4   2.0000     -10.307040      -280.4688 
   5   2.0000     -10.304548      -280.4010 
   6   2.0000     -10.304058      -280.3877 
   7   2.0000     -10.303665      -280.3770 
   8   2.0000     -10.285061      -279.8707 
   9   2.0000     -10.282873      -279.8112 
  10   2.0000     -10.282780      -279.8087 
  11   2.0000     -10.282315      -279.7960 
  12   2.0000     -10.279544      -279.7206 
  13   2.0000     -10.278396      -279.6894 
  14   2.0000     -10.277635      -279.6687 
  15   2.0000     -10.276092      -279.6267 
  16   2.0000     -10.267232      -279.3856 
  17   2.0000     -10.265532      -279.3393 
  18   2.0000      -6.850361      -186.4078 
  19   2.0000      -6.849178      -186.3756 
  20   2.0000      -1.052599       -28.6427 
  21   2.0000      -1.050431       -28.5837 
  22   2.0000      -0.955303       -25.9951 
  23   2.0000      -0.954856       -25.9829 
  24   2.0000      -0.860692       -23.4206 
  25   2.0000      -0.854374       -23.2487 
  26   2.0000      -0.851626       -23.1739 
  27   2.0000      -0.850341       -23.1389 
  28   2.0000      -0.822192       -22.3730 
  29   2.0000      -0.820527       -22.3277 
  30   2.0000      -0.771533       -20.9945 
  31   2.0000      -0.754972       -20.5438 
  32   2.0000      -0.747927       -20.3521 
  33   2.0000      -0.705516       -19.1981 
  34   2.0000      -0.694511       -18.8986 
  35   2.0000      -0.676252       -18.4018 
  36   2.0000      -0.669548       -18.2193 
  37   2.0000      -0.621455       -16.9106 
  38   2.0000      -0.611996       -16.6532 
  39   2.0000      -0.574594       -15.6355 
  40   2.0000      -0.570620       -15.5274 
  41   2.0000      -0.568178       -15.4609 
  42   2.0000      -0.563399       -15.3309 
  43   2.0000      -0.559570       -15.2267 
  44   2.0000      -0.556261       -15.1366 
  45   2.0000      -0.543176       -14.7806 
  46   2.0000      -0.529836       -14.4176 
  47   2.0000      -0.526964       -14.3394 
  48   2.0000      -0.516877       -14.0649 
  49   2.0000      -0.512693       -13.9511 
  50   2.0000      -0.501597       -13.6492 
  51   2.0000      -0.495615       -13.4864 
  52   2.0000      -0.490089       -13.3360 
  53   2.0000      -0.485693       -13.2164 
  54   2.0000      -0.481134       -13.0923 
  55   2.0000      -0.474662       -12.9162 
  56   2.0000      -0.472618       -12.8606 
  57   2.0000      -0.463215       -12.6047 
  58   2.0000      -0.459342       -12.4993 
  59   2.0000      -0.455816       -12.4034 
  60   2.0000      -0.452038       -12.3006 
  61   2.0000      -0.438470       -11.9314 
  62   2.0000      -0.427763       -11.6400 
  63   2.0000      -0.420140       -11.4326 
  64   2.0000      -0.416278       -11.3275 
  65   2.0000      -0.392969       -10.6932 
  66   2.0000      -0.351269        -9.5585 
  67   2.0000      -0.344377        -9.3710 
  68   2.0000      -0.325862        -8.8672 
  69   2.0000      -0.323397        -8.8001 
  70   2.0000      -0.287539        -7.8243 
  71   2.0000      -0.279211        -7.5977 
  72   0.0000       0.045730         1.2444 
  73   0.0000       0.078194         2.1278 
  74   0.0000       0.087176         2.3722 
  75   0.0000       0.090260         2.4561 
  76   0.0000       0.114778         3.1233 
  77   0.0000       0.155456         4.2302 
  78   0.0000       0.181121         4.9285 
  79   0.0000       0.185402         5.0450 
  80   0.0000       0.194903         5.3036 
  81   0.0000       0.203558         5.5391 
  82   0.0000       0.217850         5.9280 
*Only the first 10 virtual orbitals were printed.

                    ********************************
                    * MULLIKEN POPULATION ANALYSIS *
                    ********************************

-----------------------
MULLIKEN ATOMIC CHARGES
-----------------------
   0 C :   -0.168812
   1 C :   -0.108760
   2 C :   -0.138257
   3 C :   -0.123819
   4 C :    0.166672
   5 C :    0.029686
   6 H :    0.104661
   7 H :    0.114896
   8 H :    0.117956
   9 H :    0.109726
  10 N :   -0.479254
  11 B :    0.031834
  12 H :   -0.024020
  13 H :    0.047588
  14 H :   -0.004152
  15 C :   -0.205022
  16 H :    0.127316
  17 H :    0.095883
  18 H :    0.138905
  19 C :   -0.202382
  20 H :    0.104348
  21 H :    0.123141
  22 H :    0.138866
  23 B :    0.015887
  24 H :    0.007478
  25 C :    0.016333
  26 C :    0.192823
  27 C :   -0.158003
  28 C :   -0.134671
  29 C :   -0.115591
  30 H :    0.107331
  31 C :   -0.133327
  32 H :    0.109553
  33 H :    0.114399
  34 H :    0.118626
  35 N :   -0.456344
  36 C :   -0.206400
  37 H :    0.127842
  38 H :    0.097293
  39 H :    0.138183
  40 C :   -0.193910
  41 H :    0.105351
  42 H :    0.129264
  43 H :    0.120885
Sum of atomic charges:    0.0000000

--------------------------------
MULLIKEN REDUCED ORBITAL CHARGES
--------------------------------
  0 C s       :     3.176477  s :     3.176477
      pz      :     0.998351  p :     2.955822
      px      :     0.947513
      py      :     1.009958
      dz2     :     0.002677  d :     0.036514
      dxz     :     0.006948
      dyz     :     0.004091
      dx2y2   :     0.011519
      dxy     :     0.011279

  1 C s       :     3.153447  s :     3.153447
      pz      :     0.999462  p :     2.920400
      px      :     0.981817
      py      :     0.939121
      dz2     :     0.003491  d :     0.034913
      dxz     :     0.003737
      dyz     :     0.005967
      dx2y2   :     0.011878
      dxy     :     0.009839

  2 C s       :     3.170892  s :     3.170892
      pz      :     0.980942  p :     2.931774
      px      :     0.976398
      py      :     0.974434
      dz2     :     0.003914  d :     0.035591
      dxz     :     0.005298
      dyz     :     0.004395
      dx2y2   :     0.009289
      dxy     :     0.012695

  3 C s       :     3.149635  s :     3.149635
      pz      :     1.015572  p :     2.940414
      px      :     0.936445
      py      :     0.988396
      dz2     :     0.002765  d :     0.033771
      dxz     :     0.006615
      dyz     :     0.003780
      dx2y2   :     0.010200
      dxy     :     0.010411

  4 C s       :     3.093131  s :     3.093131
      pz      :     0.959801  p :     2.682162
      px      :     0.779132
      py      :     0.943230
      dz2     :     0.005652  d :     0.058035
      dxz     :     0.011588
      dyz     :     0.006620
      dx2y2   :     0.018419
      dxy     :     0.015756

  5 C s       :     3.172992  s :     3.172992
      pz      :     0.950325  p :     2.765784
      px      :     0.904380
      py      :     0.911079
      dz2     :     0.003476  d :     0.031538
      dxz     :     0.005299
      dyz     :     0.004827
      dx2y2   :     0.009544
      dxy     :     0.008393

  6 H s       :     0.883173  s :     0.883173
      pz      :     0.003261  p :     0.012166
      px      :     0.002273
      py      :     0.006632

  7 H s       :     0.872820  s :     0.872820
      pz      :     0.002887  p :     0.012284
      px      :     0.007264
      py      :     0.002133

  8 H s       :     0.869807  s :     0.869807
      pz      :     0.002663  p :     0.012237
      px      :     0.004656
      py      :     0.004918

  9 H s       :     0.877694  s :     0.877694
      pz      :     0.003392  p :     0.012580
      px      :     0.002337
      py      :     0.006851

 10 N s       :     3.585579  s :     3.585579
      pz      :     1.378896  p :     3.853372
      px      :     1.237623
      py      :     1.236853
      dz2     :     0.010054  d :     0.040303
      dxz     :     0.005904
      dyz     :     0.005987
      dx2y2   :     0.012246
      dxy     :     0.006112

 11 B s       :     2.924385  s :     2.924385
      pz      :     0.663329  p :     1.987399
      px      :     0.621482
      py      :     0.702588
      dz2     :     0.010558  d :     0.056383
      dxz     :     0.011325
      dyz     :     0.016509
      dx2y2   :     0.006829
      dxy     :     0.011163

 12 H s       :     1.017785  s :     1.017785
      pz      :     0.002717  p :     0.006235
      px      :     0.001005
      py      :     0.002513

 13 H s       :     0.941443  s :     0.941443
      pz      :     0.002611  p :     0.010969
      px      :     0.003723
      py      :     0.004635

 14 H s       :     0.994024  s :     0.994024
      pz      :     0.002581  p :     0.010128
      px      :     0.003765
      py      :     0.003782

 15 C s       :     3.202362  s :     3.202362
      pz      :     1.066011  p :     2.956210
      px      :     1.055842
      py      :     0.834357
      dz2     :     0.007979  d :     0.046450
      dxz     :     0.002860
      dyz     :     0.013713
      dx2y2   :     0.014509
      dxy     :     0.007390

 16 H s       :     0.861719  s :     0.861719
      pz      :     0.002329  p :     0.010966
      px      :     0.007135
      py      :     0.001502

 17 H s       :     0.893133  s :     0.893133
      pz      :     0.004829  p :     0.010984
      px      :     0.002572
      py      :     0.003583

 18 H s       :     0.850026  s :     0.850026
      pz      :     0.006063  p :     0.011069
      px      :     0.002723
      py      :     0.002282

 19 C s       :     3.205737  s :     3.205737
      pz      :     0.857500  p :     2.950288
      px      :     1.047146
      py      :     1.045641
      dz2     :     0.015848  d :     0.046357
      dxz     :     0.007022
      dyz     :     0.009983
      dx2y2   :     0.010078
      dxy     :     0.003426

 20 H s       :     0.884816  s :     0.884816
      pz      :     0.004941  p :     0.010836
      px      :     0.002718
      py      :     0.003177

 21 H s       :     0.865914  s :     0.865914
      pz      :     0.001627  p :     0.010946
      px      :     0.007146
      py      :     0.002173

 22 H s       :     0.849700  s :     0.849700
      pz      :     0.001724  p :     0.011434
      px      :     0.002670
      py      :     0.007041

 23 B s       :     2.958675  s :     2.958675
      pz      :     0.654770  p :     1.969090
      px      :     0.618637
      py      :     0.695683
      dz2     :     0.011637  d :     0.056348
      dxz     :     0.011121
      dyz     :     0.014387
      dx2y2   :     0.008011
      dxy     :     0.011193

 24 H s       :     0.986106  s :     0.986106
      pz      :     0.003033  p :     0.006416
      px      :     0.001014
      py      :     0.002370

 25 C s       :     3.183328  s :     3.183328
      pz      :     0.875105  p :     2.769524
      px      :     0.941772
      py      :     0.952647
      dz2     :     0.008504  d :     0.030816
      dxz     :     0.008271
      dyz     :     0.007350
      dx2y2   :     0.003026
      dxy     :     0.003665

 26 C s       :     3.086450  s :     3.086450
      pz      :     0.845298  p :     2.661765
      px      :     0.892746
      py      :     0.923720
      dz2     :     0.013070  d :     0.058963
      dxz     :     0.016224
      dyz     :     0.011778
      dx2y2   :     0.007782
      dxy     :     0.010109

 27 C s       :     3.182915  s :     3.182915
      pz      :     1.003029  p :     2.938251
      px      :     0.960907
      py      :     0.974314
      dz2     :     0.010078  d :     0.036838
      dxz     :     0.008098
      dyz     :     0.005880
      dx2y2   :     0.006827
      dxy     :     0.005955

 28 C s       :     3.148126  s :     3.148126
      pz      :     0.980874  p :     2.953264
      px      :     0.978276
      py      :     0.994114
      dz2     :     0.009085  d :     0.033281
      dxz     :     0.007597
      dyz     :     0.005199
      dx2y2   :     0.005707
      dxy     :     0.005692

 29 C s       :     3.150676  s :     3.150676
      pz      :     0.958532  p :     2.930264
      px      :     0.973259
      py      :     0.998473
      dz2     :     0.008191  d :     0.034651
      dxz     :     0.010854
      dyz     :     0.006060
      dx2y2   :     0.005018
      dxy     :     0.004528

 30 H s       :     0.880346  s :     0.880346
      pz      :     0.007072  p :     0.012323
      px      :     0.002284
      py      :     0.002968

 31 C s       :     3.174116  s :     3.174116
      pz      :     0.940188  p :     2.923190
      px      :     0.999861
      py      :     0.983141
      dz2     :     0.010339  d :     0.036021
      dxz     :     0.009566
      dyz     :     0.007700
      dx2y2   :     0.003171
      dxy     :     0.005246

 32 H s       :     0.877768  s :     0.877768
      pz      :     0.007115  p :     0.012679
      px      :     0.002304
      py      :     0.003259

 33 H s       :     0.873286  s :     0.873286
      pz      :     0.005056  p :     0.012315
      px      :     0.004501
      py      :     0.002757

 34 H s       :     0.869182  s :     0.869182
      pz      :     0.002116  p :     0.012192
      px      :     0.005990
      py      :     0.004086

 35 N s       :     3.570103  s :     3.570103
      pz      :     1.084632  p :     3.846262
      px      :     1.099303
      py      :     1.662328
      dz2     :     0.009385  d :     0.039978
      dxz     :     0.011213
      dyz     :     0.006355
      dx2y2   :     0.004928
      dxy     :     0.008097

 36 C s       :     3.200852  s :     3.200852
      pz      :     0.836970  p :     2.958829
      px      :     1.068065
      py      :     1.053794
      dz2     :     0.011853  d :     0.046720
      dxz     :     0.009397
      dyz     :     0.012743
      dx2y2   :     0.006222
      dxy     :     0.006505

 37 H s       :     0.861174  s :     0.861174
      pz      :     0.003380  p :     0.010984
      px      :     0.004140
      py      :     0.003464

 38 H s       :     0.891755  s :     0.891755
      pz      :     0.002247  p :     0.010953
      px      :     0.002160
      py      :     0.006545

 39 H s       :     0.850718  s :     0.850718
      pz      :     0.001530  p :     0.011099
      px      :     0.006115
      py      :     0.003453

 40 C s       :     3.204155  s :     3.204155
      pz      :     1.081134  p :     2.942831
      px      :     0.843366
      py      :     1.018331
      dz2     :     0.008858  d :     0.046925
      dxz     :     0.008398
      dyz     :     0.003793
      dx2y2   :     0.014350
      dxy     :     0.011525

 41 H s       :     0.883793  s :     0.883793
      pz      :     0.002596  p :     0.010856
      px      :     0.001487
      py      :     0.006773

 42 H s       :     0.859807  s :     0.859807
      pz      :     0.003764  p :     0.010930
      px      :     0.003806
      py      :     0.003359

 43 H s       :     0.867600  s :     0.867600
      pz      :     0.006918  p :     0.011516
      px      :     0.002264
      py      :     0.002333



                     *******************************
                     * LOEWDIN POPULATION ANALYSIS *
                     *******************************

----------------------
LOEWDIN ATOMIC CHARGES
----------------------
   0 C :   -0.067961
   1 C :   -0.091059
   2 C :   -0.075805
   3 C :   -0.102773
   4 C :    0.033322
   5 C :   -0.045692
   6 H :    0.073648
   7 H :    0.077320
   8 H :    0.078052
   9 H :    0.077497
  10 N :   -0.146687
  11 B :   -0.199211
  12 H :    0.018476
  13 H :    0.181010
  14 H :    0.159368
  15 C :   -0.127596
  16 H :    0.075421
  17 H :    0.049959
  18 H :    0.080890
  19 C :   -0.120219
  20 H :    0.055012
  21 H :    0.071947
  22 H :    0.082971
  23 B :   -0.171515
  24 H :    0.032832
  25 C :   -0.067990
  26 C :    0.048632
  27 C :   -0.054455
  28 C :   -0.113637
  29 C :   -0.101714
  30 H :    0.076606
  31 C :   -0.065638
  32 H :    0.077449
  33 H :    0.077034
  34 H :    0.078472
  35 N :   -0.128034
  36 C :   -0.126933
  37 H :    0.076173
  38 H :    0.050580
  39 H :    0.080541
  40 C :   -0.114040
  41 H :    0.055707
  42 H :    0.074304
  43 H :    0.077737

-------------------------------
LOEWDIN REDUCED ORBITAL CHARGES
-------------------------------
  0 C s       :     2.888969  s :     2.888969
      pz      :     0.987637  p :     3.092241
      px      :     1.056987
      py      :     1.047617
      dz2     :     0.005414  d :     0.086752
      dxz     :     0.015013
      dyz     :     0.007579
      dx2y2   :     0.029508
      dxy     :     0.029237

  1 C s       :     2.891786  s :     2.891786
      pz      :     1.000064  p :     3.114511
      px      :     1.056430
      py      :     1.058017
      dz2     :     0.006860  d :     0.084762
      dxz     :     0.007408
      dyz     :     0.013825
      dx2y2   :     0.030073
      dxy     :     0.026596

  2 C s       :     2.892213  s :     2.892213
      pz      :     0.983319  p :     3.097724
      px      :     1.059083
      py      :     1.055323
      dz2     :     0.007548  d :     0.085869
      dxz     :     0.011847
      dyz     :     0.009613
      dx2y2   :     0.025340
      dxy     :     0.031520

  3 C s       :     2.891694  s :     2.891694
      pz      :     1.012781  p :     3.128070
      px      :     1.056835
      py      :     1.058454
      dz2     :     0.005764  d :     0.083009
      dxz     :     0.014817
      dyz     :     0.007081
      dx2y2   :     0.027384
      dxy     :     0.027963

  4 C s       :     2.851198  s :     2.851198
      pz      :     0.965741  p :     2.975717
      px      :     0.952866
      py      :     1.057110
      dz2     :     0.011672  d :     0.139763
      dxz     :     0.024651
      dyz     :     0.014640
      dx2y2   :     0.047535
      dxy     :     0.041265

  5 C s       :     2.875608  s :     2.875608
      pz      :     0.961113  p :     3.089947
      px      :     1.071728
      py      :     1.057105
      dz2     :     0.007404  d :     0.080137
      dxz     :     0.012077
      dyz     :     0.010761
      dx2y2   :     0.025789
      dxy     :     0.024107

  6 H s       :     0.886712  s :     0.886712
      pz      :     0.010077  p :     0.039641
      px      :     0.007334
      py      :     0.022230

  7 H s       :     0.882440  s :     0.882440
      pz      :     0.008659  p :     0.040240
      px      :     0.024690
      py      :     0.006891

  8 H s       :     0.881934  s :     0.881934
      pz      :     0.007848  p :     0.040013
      px      :     0.015640
      py      :     0.016525

  9 H s       :     0.881233  s :     0.881233
      pz      :     0.010580  p :     0.041270
      px      :     0.007577
      py      :     0.023113

 10 N s       :     3.117438  s :     3.117438
      pz      :     1.397439  p :     3.934571
      px      :     1.262342
      py      :     1.274790
      dz2     :     0.021636  d :     0.094678
      dxz     :     0.013996
      dyz     :     0.014135
      dx2y2   :     0.028292
      dxy     :     0.016620

 11 B s       :     2.733252  s :     2.733252
      pz      :     0.808169  p :     2.340946
      px      :     0.726375
      py      :     0.806402
      dz2     :     0.022609  d :     0.125013
      dxz     :     0.023978
      dyz     :     0.036551
      dx2y2   :     0.014914
      dxy     :     0.026961

 12 H s       :     0.964658  s :     0.964658
      pz      :     0.007504  p :     0.016866
      px      :     0.002926
      py      :     0.006435

 13 H s       :     0.793341  s :     0.793341
      pz      :     0.006769  p :     0.025649
      px      :     0.008863
      py      :     0.010017

 14 H s       :     0.816527  s :     0.816527
      pz      :     0.006901  p :     0.024105
      px      :     0.008879
      py      :     0.008324

 15 C s       :     2.901864  s :     2.901864
      pz      :     1.097333  p :     3.129070
      px      :     1.084488
      py      :     0.947249
      dz2     :     0.015519  d :     0.096662
      dxz     :     0.004960
      dyz     :     0.028955
      dx2y2   :     0.031274
      dxy     :     0.015954

 16 H s       :     0.886314  s :     0.886314
      pz      :     0.007006  p :     0.038265
      px      :     0.026177
      py      :     0.005082

 17 H s       :     0.911585  s :     0.911585
      pz      :     0.016847  p :     0.038456
      px      :     0.008296
      py      :     0.013312

 18 H s       :     0.880299  s :     0.880299
      pz      :     0.022165  p :     0.038811
      px      :     0.008723
      py      :     0.007923

 19 C s       :     2.904153  s :     2.904153
      pz      :     0.962076  p :     3.120298
      px      :     1.081114
      py      :     1.077109
      dz2     :     0.034453  d :     0.095768
      dxz     :     0.014748
      dyz     :     0.021144
      dx2y2   :     0.019090
      dxy     :     0.006333

 20 H s       :     0.906624  s :     0.906624
      pz      :     0.018806  p :     0.038364
      px      :     0.008836
      py      :     0.010722

 21 H s       :     0.889796  s :     0.889796
      pz      :     0.005229  p :     0.038257
      px      :     0.026165
      py      :     0.006863

 22 H s       :     0.877401  s :     0.877401
      pz      :     0.005522  p :     0.039628
      px      :     0.008409
      py      :     0.025697

 23 B s       :     2.742557  s :     2.742557
      pz      :     0.794834  p :     2.303675
      px      :     0.721723
      py      :     0.787118
      dz2     :     0.025220  d :     0.125284
      dxz     :     0.024256
      dyz     :     0.031917
      dx2y2   :     0.017796
      dxy     :     0.026094

 24 H s       :     0.949623  s :     0.949623
      pz      :     0.008430  p :     0.017545
      px      :     0.002818
      py      :     0.006297

 25 C s       :     2.874999  s :     2.874999
      pz      :     1.039249  p :     3.114147
      px      :     1.061964
      py      :     1.012934
      dz2     :     0.024443  d :     0.078844
      dxz     :     0.022613
      dyz     :     0.017433
      dx2y2   :     0.006076
      dxy     :     0.008278

 26 C s       :     2.851285  s :     2.851285
      pz      :     0.996104  p :     2.958782
      px      :     0.995533
      py      :     0.967145
      dz2     :     0.033215  d :     0.141301
      dxz     :     0.041013
      dyz     :     0.027303
      dx2y2   :     0.016530
      dxy     :     0.023239

 27 C s       :     2.891159  s :     2.891159
      pz      :     1.051803  p :     3.076224
      px      :     1.037585
      py      :     0.986836
      dz2     :     0.022966  d :     0.087072
      dxz     :     0.021241
      dyz     :     0.012836
      dx2y2   :     0.015189
      dxy     :     0.014840

 28 C s       :     2.891003  s :     2.891003
      pz      :     1.060486  p :     3.140641
      px      :     1.058120
      py      :     1.022036
      dz2     :     0.021947  d :     0.081993
      dxz     :     0.020935
      dyz     :     0.011521
      dx2y2   :     0.013255
      dxy     :     0.014335

 29 C s       :     2.890491  s :     2.890491
      pz      :     1.056986  p :     3.126703
      px      :     1.046170
      py      :     1.023546
      dz2     :     0.021612  d :     0.084520
      dxz     :     0.026293
      dyz     :     0.014717
      dx2y2   :     0.010714
      dxy     :     0.011185

 30 H s       :     0.883200  s :     0.883200
      pz      :     0.023782  p :     0.040194
      px      :     0.007093
      py      :     0.009319

 31 C s       :     2.893277  s :     2.893277
      pz      :     1.065759  p :     3.085708
      px      :     1.032794
      py      :     0.987155
      dz2     :     0.027589  d :     0.086653
      dxz     :     0.025019
      dyz     :     0.018005
      dx2y2   :     0.006115
      dxy     :     0.009925

 32 H s       :     0.880875  s :     0.880875
      pz      :     0.023728  p :     0.041677
      px      :     0.007621
      py      :     0.010328

 33 H s       :     0.882577  s :     0.882577
      pz      :     0.017032  p :     0.040389
      px      :     0.014924
      py      :     0.008433

 34 H s       :     0.881634  s :     0.881634
      pz      :     0.006864  p :     0.039894
      px      :     0.020045
      py      :     0.012985

 35 N s       :     3.102213  s :     3.102213
      pz      :     1.140357  p :     3.930730
      px      :     1.152458
      py      :     1.637915
      dz2     :     0.025476  d :     0.095091
      dxz     :     0.029562
      dyz     :     0.012706
      dx2y2   :     0.011068
      dxy     :     0.016279

 36 C s       :     2.900442  s :     2.900442
      pz      :     0.944455  p :     3.129315
      px      :     1.089664
      py      :     1.095196
      dz2     :     0.025600  d :     0.097176
      dxz     :     0.020050
      dyz     :     0.027356
      dx2y2   :     0.012136
      dxy     :     0.012034

 37 H s       :     0.885544  s :     0.885544
      pz      :     0.012265  p :     0.038283
      px      :     0.014671
      py      :     0.011346

 38 H s       :     0.910968  s :     0.910968
      pz      :     0.008071  p :     0.038451
      px      :     0.007035
      py      :     0.023345

 39 H s       :     0.880579  s :     0.880579
      pz      :     0.005255  p :     0.038880
      px      :     0.022056
      py      :     0.011569

 40 C s       :     2.901798  s :     2.901798
      pz      :     1.101243  p :     3.115478
      px      :     0.944764
      py      :     1.069471
      dz2     :     0.018007  d :     0.096764
      dxz     :     0.016766
      dyz     :     0.006986
      dx2y2   :     0.030391
      dxy     :     0.024615

 41 H s       :     0.906019  s :     0.906019
      pz      :     0.008328  p :     0.038274
      px      :     0.005068
      py      :     0.024877

 42 H s       :     0.887320  s :     0.887320
      pz      :     0.012922  p :     0.038376
      px      :     0.014043
      py      :     0.011411

 43 H s       :     0.883008  s :     0.883008
      pz      :     0.024780  p :     0.039255
      px      :     0.007708
      py      :     0.006767



                      *****************************
[...]
 95:   1510.92   0.002394   12.10  0.000495  ( 0.021800  0.004396 -0.000032)
 96:   1517.38   0.001022    5.17  0.000210  (-0.008506  0.011601  0.001822)
 97:   1518.70   0.003594   18.16  0.000739  (-0.015591  0.007817 -0.020843)
 98:   1537.08   0.002911   14.71  0.000591  (-0.016058 -0.008164 -0.016325)
 99:   1537.74   0.000263    1.33  0.000053  ( 0.001238 -0.002573 -0.006721)
100:   1552.90   0.029392  148.53  0.005906  ( 0.028130 -0.032135 -0.063894)
101:   1554.06   0.012939   65.39  0.002598  (-0.016680 -0.002997 -0.048073)
102:   1656.23   0.150493  760.53  0.028356  (-0.103642 -0.072146 -0.111396)
103:   1662.33   0.009433   47.67  0.001771  (-0.029214 -0.021089 -0.021742)
104:   1668.14   0.064399  325.44  0.012047  ( 0.084539  0.033513  0.061460)
105:   1692.90   0.010591   53.52  0.001952  ( 0.026483  0.004792 -0.035042)
106:   1696.25   0.019167   96.86  0.003526  (-0.046729 -0.017015 -0.032452)
107:   1810.58   0.008823   44.59  0.001521  (-0.016594 -0.013944 -0.032417)
108:   2042.10   0.002177   11.00  0.000333  (-0.006776  0.013643  0.010032)
109:   2177.13   0.009571   48.37  0.001372  (-0.013348 -0.025129 -0.023712)
110:   2627.60   0.017427   88.07  0.002070  (-0.013143 -0.030571  0.031022)
111:   2685.86   0.010500   53.06  0.001220  ( 0.012911  0.024465 -0.021325)
112:   2985.36   0.015366   77.65  0.001606  ( 0.010146  0.019263  0.033648)
113:   2989.76   0.013663   69.05  0.001426  ( 0.003031 -0.035907 -0.011297)
114:   2996.34   0.022384  113.12  0.002331  (-0.023374  0.035384  0.023085)
115:   2999.96   0.019780   99.96  0.002058  (-0.005684  0.013096  0.043056)
116:   3110.86   0.006580   33.25  0.000660  ( 0.011070  0.017659 -0.015024)
117:   3110.96   0.008581   43.36  0.000861  ( 0.022505 -0.009392  0.016311)
118:   3112.80   0.005481   27.70  0.000549  (-0.020947 -0.010497 -0.000726)
119:   3116.20   0.005968   30.16  0.000598  ( 0.019253  0.014638 -0.003559)
120:   3171.00   0.003432   17.34  0.000338  ( 0.016878 -0.004840 -0.005426)
121:   3172.58   0.003269   16.52  0.000322  (-0.011206 -0.003562  0.013537)
122:   3178.57   0.003493   17.65  0.000343  (-0.012926  0.012918  0.003004)
123:   3190.35   0.005125   25.90  0.000501  ( 0.000023  0.000126  0.022389)
124:   3199.85   0.002532   12.79  0.000247  (-0.003009  0.014465  0.005348)
125:   3208.52   0.001413    7.14  0.000137  ( 0.002063  0.004597  0.010584)
126:   3218.87   0.001164    5.88  0.000113  (-0.004994 -0.009207 -0.001771)
127:   3219.07   0.002169   10.96  0.000210  ( 0.010194  0.007789  0.006759)
128:   3235.56   0.004901   24.77  0.000473  (-0.017210  0.011957  0.005789)
129:   3239.32   0.005308   26.82  0.000511  ( 0.012660  0.003483 -0.018410)
130:   3244.67   0.004538   22.93  0.000436  ( 0.016361  0.012525  0.003448)
131:   3249.16   0.003324   16.80  0.000319  (-0.012755 -0.009502 -0.008140)

* The epsilon (eps) is given for a Dirac delta lineshape.
** The dipole moment derivative (T) already includes vibrational overlap.

The first frequency considered to be a vibration is 7
The total number of vibrations considered is 125


--------------------------
THERMOCHEMISTRY AT 298.15K
--------------------------

Temperature         ...   298.15 K
Pressure            ...     1.00 atm
Total Mass          ...   266.00 AMU
Quasi RRHO          ...     True
Cut-Off Frequency   ...     1.00 cm^-1

Throughout the following assumptions are being made:
  (1) The electronic state is orbitally nondegenerate
  (2) There are no thermally accessible electronically excited states
  (3) Hindered rotations indicated by low frequency modes are not
      treated as such but are treated as vibrations and this may
      cause some error
  (4) All equations used are the standard statistical mechanics
      equations for an ideal gas
  (5) All vibrations are strictly harmonic

freq.      27.11  E(vib)   ...       0.55 
freq.      35.19  E(vib)   ...       0.54 
freq.      49.29  E(vib)   ...       0.52 
freq.      70.31  E(vib)   ...       0.50 
freq.      76.13  E(vib)   ...       0.49 
freq.      99.34  E(vib)   ...       0.46 
freq.     120.70  E(vib)   ...       0.44 
freq.     127.67  E(vib)   ...       0.43 
freq.     153.38  E(vib)   ...       0.40 
freq.     184.25  E(vib)   ...       0.37 
freq.     193.37  E(vib)   ...       0.36 
freq.     219.60  E(vib)   ...       0.33 
freq.     250.77  E(vib)   ...       0.30 
freq.     256.64  E(vib)   ...       0.30 
freq.     285.41  E(vib)   ...       0.28 
freq.     291.33  E(vib)   ...       0.27 
freq.     309.36  E(vib)   ...       0.26 
freq.     315.46  E(vib)   ...       0.25 
freq.     338.40  E(vib)   ...       0.23 
freq.     360.57  E(vib)   ...       0.22 
freq.     378.33  E(vib)   ...       0.21 
freq.     385.73  E(vib)   ...       0.20 
freq.     460.17  E(vib)   ...       0.16 
freq.     464.26  E(vib)   ...       0.16 
freq.     487.63  E(vib)   ...       0.15 
freq.     506.88  E(vib)   ...       0.14 
freq.     527.21  E(vib)   ...       0.13 
freq.     549.04  E(vib)   ...       0.12 
freq.     572.97  E(vib)   ...       0.11 
freq.     576.79  E(vib)   ...       0.11 
freq.     589.00  E(vib)   ...       0.10 
freq.     617.42  E(vib)   ...       0.09 
freq.     713.43  E(vib)   ...       0.07 
freq.     733.92  E(vib)   ...       0.06 
freq.     743.68  E(vib)   ...       0.06 
freq.     759.55  E(vib)   ...       0.06 
freq.     772.21  E(vib)   ...       0.05 
freq.     789.35  E(vib)   ...       0.05 
freq.     799.01  E(vib)   ...       0.05 
freq.     812.83  E(vib)   ...       0.05 
freq.     825.42  E(vib)   ...       0.04 
freq.     852.01  E(vib)   ...       0.04 
freq.     884.85  E(vib)   ...       0.04 
freq.     896.59  E(vib)   ...       0.03 
freq.     905.67  E(vib)   ...       0.03 
freq.     942.85  E(vib)   ...       0.03 
freq.     972.83  E(vib)   ...       0.03 
freq.     977.49  E(vib)   ...       0.03 
freq.     995.24  E(vib)   ...       0.02 
freq.     998.70  E(vib)   ...       0.02 
freq.    1009.16  E(vib)   ...       0.02 
freq.    1009.20  E(vib)   ...       0.02 
freq.    1056.81  E(vib)   ...       0.02 
freq.    1068.40  E(vib)   ...       0.02 
freq.    1084.98  E(vib)   ...       0.02 
freq.    1088.64  E(vib)   ...       0.02 
freq.    1089.84  E(vib)   ...       0.02 
freq.    1093.23  E(vib)   ...       0.02 
freq.    1097.35  E(vib)   ...       0.02 
freq.    1128.48  E(vib)   ...       0.01 
freq.    1128.92  E(vib)   ...       0.01 
freq.    1139.10  E(vib)   ...       0.01 
freq.    1150.63  E(vib)   ...       0.01 
freq.    1180.70  E(vib)   ...       0.01 
freq.    1189.76  E(vib)   ...       0.01 
freq.    1191.95  E(vib)   ...       0.01 
freq.    1195.22  E(vib)   ...       0.01 
freq.    1200.43  E(vib)   ...       0.01 
freq.    1201.42  E(vib)   ...       0.01 
freq.    1233.51  E(vib)   ...       0.01 
freq.    1251.20  E(vib)   ...       0.01 
freq.    1269.86  E(vib)   ...       0.01 
freq.    1277.58  E(vib)   ...       0.01 
freq.    1316.65  E(vib)   ...       0.01 
freq.    1320.61  E(vib)   ...       0.01 
freq.    1336.66  E(vib)   ...       0.01 
freq.    1342.46  E(vib)   ...       0.01 
freq.    1376.47  E(vib)   ...       0.01 
freq.    1391.09  E(vib)   ...       0.00 
freq.    1458.50  E(vib)   ...       0.00 
freq.    1458.70  E(vib)   ...       0.00 
freq.    1483.56  E(vib)   ...       0.00 
freq.    1484.70  E(vib)   ...       0.00 
freq.    1492.50  E(vib)   ...       0.00 
freq.    1496.22  E(vib)   ...       0.00 
freq.    1501.69  E(vib)   ...       0.00 
freq.    1503.47  E(vib)   ...       0.00 
freq.    1509.32  E(vib)   ...       0.00 
freq.    1510.92  E(vib)   ...       0.00 
freq.    1517.38  E(vib)   ...       0.00 
freq.    1518.70  E(vib)   ...       0.00 
freq.    1537.08  E(vib)   ...       0.00 
freq.    1537.74  E(vib)   ...       0.00 
freq.    1552.90  E(vib)   ...       0.00 
freq.    1554.06  E(vib)   ...       0.00 
freq.    1656.23  E(vib)   ...       0.00 
freq.    1662.33  E(vib)   ...       0.00 
freq.    1668.14  E(vib)   ...       0.00 
freq.    1692.90  E(vib)   ...       0.00 
freq.    1696.25  E(vib)   ...       0.00 
freq.    1810.58  E(vib)   ...       0.00 
freq.    2042.10  E(vib)   ...       0.00 
freq.    2177.13  E(vib)   ...       0.00 
freq.    2627.60  E(vib)   ...       0.00 
freq.    2685.86  E(vib)   ...       0.00 
freq.    2985.36  E(vib)   ...       0.00 
freq.    2989.76  E(vib)   ...       0.00 
freq.    2996.34  E(vib)   ...       0.00 
freq.    2999.96  E(vib)   ...       0.00 
freq.    3110.86  E(vib)   ...       0.00 
freq.    3110.96  E(vib)   ...       0.00 
freq.    3112.80  E(vib)   ...       0.00 
freq.    3116.20  E(vib)   ...       0.00 
freq.    3171.00  E(vib)   ...       0.00 
freq.    3172.58  E(vib)   ...       0.00 
freq.    3178.57  E(vib)   ...       0.00 
freq.    3190.35  E(vib)   ...       0.00 
freq.    3199.85  E(vib)   ...       0.00 
freq.    3208.52  E(vib)   ...       0.00 
freq.    3218.87  E(vib)   ...       0.00 
freq.    3219.07  E(vib)   ...       0.00 
freq.    3235.56  E(vib)   ...       0.00 
freq.    3239.32  E(vib)   ...       0.00 
freq.    3244.67  E(vib)   ...       0.00 
freq.    3249.16  E(vib)   ...       0.00 

------------
INNER ENERGY
------------

The inner energy is: U= E(el) + E(ZPE) + E(vib) + E(rot) + E(trans)
    E(el)   - is the total energy from the electronic structure calculation
              = E(kin-el) + E(nuc-el) + E(el-el) + E(nuc-nuc)
    E(ZPE)  - the the zero temperature vibrational energy from the frequency calculation
    E(vib)  - the the finite temperature correction to E(ZPE) due to population
              of excited vibrational states
    E(rot)  - is the rotational thermal energy
    E(trans)- is the translational thermal energy

Summary of contributions to the inner energy U:
Electronic energy                ...   -783.14780647 Eh
Zero point energy                ...      0.37922827 Eh     237.97 kcal/mol
Thermal vibrational correction   ...      0.01650821 Eh      10.36 kcal/mol
Thermal rotational correction    ...      0.00141627 Eh       0.89 kcal/mol
Thermal translational correction ...      0.00141627 Eh       0.89 kcal/mol
-----------------------------------------------------------------------
Total thermal energy                   -782.74923744 Eh


Summary of corrections to the electronic energy:
(perhaps to be used in another calculation)
Total thermal correction                  0.01934075 Eh      12.14 kcal/mol
Non-thermal (ZPE) correction              0.37922827 Eh     237.97 kcal/mol
-----------------------------------------------------------------------
Total correction                          0.39856903 Eh     250.11 kcal/mol


--------
ENTHALPY
--------

The enthalpy is H = U + kB*T
                kB is Boltzmann's constant
Total thermal energy              ...   -782.74923744 Eh 
Thermal Enthalpy correction       ...      0.00094421 Eh       0.59 kcal/mol
-----------------------------------------------------------------------
Total Enthalpy                    ...   -782.74829323 Eh


Note: Only C1 symmetry has been detected, increase convergence thresholds 
      if your molecule has a higher symmetry. Symmetry factor of 1.0 is   
      used for the rotational entropy correction. 
 

Note: Rotational entropy computed according to Herzberg 
Infrared and Raman Spectra, Chapter V,1, Van Nostrand Reinhold, 1945 
Point Group:  C1, Symmetry Number:   1  
Rotational constants in cm-1:     0.018416     0.005608     0.004772 

Vibrational entropy computed according to the QRRHO of S. Grimme
Chem.Eur.J. 2012 18 9955 using a reference frequency of 100.0 cm-1


-------
ENTROPY
-------

The entropy contributions are T*S = T*(S(el)+S(vib)+S(rot)+S(trans))
     S(el)   - electronic entropy
     S(vib)  - vibrational entropy
     S(rot)  - rotational entropy
     S(trans)- translational entropy
The entropies will be listed as multiplied by the temperature to get
units of energy

Electronic entropy                ...      0.00000000 Eh      0.00 kcal/mol
Vibrational entropy               ...      0.02883508 Eh     18.09 kcal/mol
Rotational entropy                ...      0.01636699 Eh     10.27 kcal/mol
Translational entropy             ...      0.02025683 Eh     12.71 kcal/mol
-----------------------------------------------------------------------
Final entropy term                ...      0.06545890 Eh     41.08 kcal/mol

In case the symmetry of your molecule has not been determined correctly
or in case you have a reason to use a different symmetry number we print 
out the resulting rotational entropy values for sn=1,12:

 non-linear molecules -----------------------------------
|  sn= 1 | S(rot)=       0.01636699 Eh     10.27 kcal/mol|
|  sn= 2 | S(rot)=       0.01571254 Eh      9.86 kcal/mol|
|  sn= 3 | S(rot)=       0.01532970 Eh      9.62 kcal/mol|
|  sn= 4 | S(rot)=       0.01505808 Eh      9.45 kcal/mol|
|  sn= 5 | S(rot)=       0.01484739 Eh      9.32 kcal/mol|
|  sn= 6 | S(rot)=       0.01467525 Eh      9.21 kcal/mol|
|  sn= 7 | S(rot)=       0.01452970 Eh      9.12 kcal/mol|
|  sn= 8 | S(rot)=       0.01440362 Eh      9.04 kcal/mol|
|  sn= 9 | S(rot)=       0.01429241 Eh      8.97 kcal/mol|
|  sn=10 | S(rot)=       0.01419293 Eh      8.91 kcal/mol|
|  sn=11 | S(rot)=       0.01410294 Eh      8.85 kcal/mol|
|  sn=12 | S(rot)=       0.01402079 Eh      8.80 kcal/mol|
 linear molecules ---------------------------------------
|  Dinfh | S(rot)=       0.01037239 Eh      6.51 kcal/mol|
|  Cinfv | S(rot)=       0.01102684 Eh      6.92 kcal/mol|
 --------------------------------------------------------


-------------------
GIBBS FREE ENERGY
-------------------

The Gibbs free energy is G = H - T*S

Total enthalpy                    ...   -782.74829323 Eh 
Total entropy correction          ...     -0.06545890 Eh    -41.08 kcal/mol
-----------------------------------------------------------------------
Final Gibbs free energy         ...   -782.81375213 Eh

For completeness - the Gibbs free energy minus the electronic energy
G-E(el)                           ...      0.33405433 Eh    209.62 kcal/mol

WARNING (PropertyFile): The property 'Hessian' exists multiple times for geometry 1 which is not allowed

Maximum memory used throughout the entire PROP-calculation: 258.8 MB

--------------------------------
SUGGESTED CITATIONS FOR THIS RUN
--------------------------------

Below you find a list of papers that are relevant to this ORCA run
We neither can nor want to force you to cite these papers, but we appreciate if you do
You receive ORCA, which is the product of decades of hard work by many enthusiastic individuals, for free
The only thing we kindly ask in return is that you cite our papers,
We deeply appreciate it, if you show your appreciation for ORCA by not just citing the generic ORCA reference.

Please note that relegating all ORCA citations to the supporting information does *not* help us.
SI sections are not indexed - citations you put there will not count into any citation statistics
But we need these citations in order to attract the funding resources that allow us to do what we are doing

Therefore, if you are a happy ORCA user, please consider citing a few of the papers listed below in the main body of your paper

In addition to the list printed below, the program has created the file input.bibtex that contains the list in bibtex format
You can import this file easily into all common literature databanks and citation aid programs


List of essential papers. We consider these as the minimum necessary citations

  1. Neese, F.
     Software update: the ORCA program system, version 6.0
     WIRES Comput. Molec. Sci. 2025 15(1), e70019
     doi.org/10.1002/wcms.7019

List of papers to cite with high priority. The work reported in these papers was absolutely
necessary for this run to complete.
Our perspective: the developers of density functionals and basis sets usually get cited in chemistry papers
Good! But without the algorithms to do something with them, the functionals or basis sets would not do anything.
Hence, in our opinion, the algorithm design and method developments papers are equally worthy of getting cited

  1. Neese, F.
     An improvement of the resolution of the identity approximation for the formation of the Coulomb matrix
     J. Comp. Chem. 2003 24(14), 1740-1747
     doi.org/10.1002/jcc.10318
  2. Neese, F.; Wennmohs, F.; Hansen, A.; Becker, U.
     Efficient, approximate and parallel Hartree-Fock and hybrid DFT calculations. A 'chain-of-spheres' algorithm for the Hartree-Fock exchange
     Chem. Phys. 2009 356(1-3), 98-109
     doi.org/10.1016/j.chemphys.2008.10.036
  3. Grimme, S.; Antony, J.; Ehrlich, S.; Krieg, H.
     A consistent and accurate ab initio parametrization of density functional dispersion correction (DFT-D) for the 94 elements H-Pu
     J. Chem. Phys. 2010 132 , 154104
     doi.org/10.1063/1.3382344
  4. Bykov, D.; Petrenko, T.; Izsak, R.; Kossmann, S.; Becker, U.; Valeev, E.; Neese, F.
     Efficient implementation of the analytic second derivatives of Hartree-Fock and hybrid DFT energies: a detailed analysis of different approximations
     Molec. Phys. 2015 113 , 1961-1977
     doi.org/10.1080/00268976.2015.1025114
  5. Helmich-Paris, B.; de Souza, B.; Neese, F.; Izsák, R.
     An improved chain of spheres for exchange algorithm
     J. Chem. Phys. 2021 155(10), 104109
     doi.org/10.1063/5.0058766
  6. Neese, F.
     The SHARK Integral Generation and Digestion System
     J. Comp. Chem. 2022 44(3), 381
     doi.org/10.1002/jcc.26942

List of suggested additional citations. These are papers that are important in the 'surrounding' of 
of this run, or papers that preceded the highly important papers. If you like your results we are grateful for a citation.

  1. Izsak, R.; Neese, F.
     An overlap fitted chain of spheres exchange method
     J. Chem. Phys. 2011 135 , 144105
     doi.org/10.1063/1.3646921
  2. Izsak, R.; Hansen, A.; Neese, F.
     The resolution of identity and chain of spheres approximations for the LPNO-CCSD singles Fock term
     Molec. Phys. 2012 110 , 2413-2417
     doi.org/10.1080/00268976.2012.687466
  3. Neese, F.
     The ORCA program system
     WIRES Comput. Molec. Sci. 2012 2(1), 73-78
     doi.org/10.1002/wcms.81
  4. Izsak, R.; Neese, F.; Klopper, W.
     Robust fitting techniques in the chain of spheres approximation to the Fock exchange: The role of the complementary space
     J. Chem. Phys. 2013 139 , 
     doi.org/10.1063/1.4819264
  5. Neese, F.
     Software update: the ORCA program system, version 4.0
     WIRES Comput. Molec. Sci. 2018 8(1), 1-6
     doi.org/10.1002/wcms.1327
  6. Neese, F.; Wennmohs, F.; Becker, U.; Riplinger, C.
     The ORCA quantum chemistry program package
     J. Chem. Phys. 2020 152(22), 224108
     doi.org/10.1063/5.0004608
  7. Neese, F.
     Software update: The ORCA program system—Version 5.0
     WIRES Comput. Molec. Sci. 2022 12(1), e1606
     doi.org/10.1002/wcms.1606

List of optional additional citations

  1. Neese, F.
     Approximate second-order SCF convergence for spin unrestricted wavefunctions
     Chem. Phys. Lett. 2000 325(1-3), 93-98
     doi.org/10.1016/s0009-2614(00)00662-x

Timings for individual modules:

Sum of individual times          ...      785.429 sec (=  13.090 min)
Startup calculation              ...        6.937 sec (=   0.116 min)   0.9 %
SCF iterations                   ...       84.149 sec (=   1.402 min)  10.7 %
Property integrals               ...      163.104 sec (=   2.718 min)  20.8 %
SCF Response                     ...      202.279 sec (=   3.371 min)  25.8 %
Property calculations            ...      328.961 sec (=   5.483 min)  41.9 %
WARNING (JSON): The property 'Hessian' exists multiple times for geometry 1 which is not allowed => overwriting previous entry!
                             ****ORCA TERMINATED NORMALLY****
TOTAL RUN TIME: 0 days 0 hours 24 minutes 43 seconds 954 msec
