
                                 *****************
                                 * O   R   C   A *
                                 *****************

                                            #,                                       
                                            ###                                      
                                            ####                                     
                                            #####                                    
                                            ######                                   
                                           ########,                                 
                                     ,,################,,,,,                         
                               ,,#################################,,                 
                          ,,##########################################,,             
                       ,#########################################, ''#####,          
                    ,#############################################,,   '####,        
                  ,##################################################,,,,####,       
                ,###########''''           ''''###############################       
              ,#####''   ,,,,##########,,,,          '''####'''          '####       
            ,##' ,,,,###########################,,,                        '##       
           ' ,,###''''                  '''############,,,                           
         ,,##''                                '''############,,,,        ,,,,,,###''
      ,#''                                            '''#######################'''  
     '                                                          ''''####''''         
             ,#######,   #######,   ,#######,      ##                                
            ,#'     '#,  ##    ##  ,#'     '#,    #''#        ,####,   ,####,        
            ##       ##  ##   ,#'  ##            #'  '#       #'       #'  '#        
            ##       ##  #######   ##           ,######,      #####,   #    #        
            '#,     ,#'  ##    ##  '#,     ,#' ,#      #,     #,   #   #,  ,#        
             '#######'   ##     ##  '#######'  #'      '#     '####' # '####'        



                #########################################################
                #                        -***-                          #
                #          Department of theory and spectroscopy        #
                #                                                       #
                #                      Frank Neese                      #
                #                                                       #
                #     Directorship, Architecture, Infrastructure        #
                #                    SHARK, DRIVERS                     #
                #        Core code/Algorithms in most modules           #
                #                                                       #
                #        Max Planck Institute fuer Kohlenforschung      #
                #                Kaiser Wilhelm Platz 1                 #
                #                 D-45470 Muelheim/Ruhr                 #
                #                      Germany                          #
                #                                                       #
                #                  All rights reserved                  #
                #                        -***-                          #
                #########################################################


                         Program Version 6.0.1  -  RELEASE   -


 With contributions from (in alphabetic order):
[Max-Planck-Institut fuer Kohlenforschung]                               
  Daniel Aravena         : Magnetic Suceptibility                        
  Michael Atanasov       : Ab Initio Ligand Field Theory (pilot matlab implementation)
  Alexander A. Auer      : GIAO ZORA, VPT2 properties, NMR spectrum      
  Ute Becker             : All parallelization in ORCA, NUMFREQ, NUMCALC 
  Giovanni Bistoni       : ED, misc. LED, open-shell LED, HFLD           
  Martin Brehm           : Molecular dynamics                            
  Dmytro Bykov           : pre 5.0 version of the SCF Hessian            
  Marcos Casanova-Páez   : Triplet and SCS-CIS(D). UHF-(DLPNO)-IP/EA/STEOM-CCSD. UHF-CVS-IP/STEOM-CCSD   
  Vijay G. Chilkuri      : MRCI spin determinant printing, contributions to CSF-ICE 
  Pauline Colinet        : FMM embedding                                 
  Dipayan Datta          : RHF DLPNO-CCSD density                        
  Achintya Kumar Dutta   : EOM-CC, STEOM-CC                              
  Nicolas Foglia         : Exact transition moments, OPA infrastructure, MCD improvements    
  Dmitry Ganyushin       : Spin-Orbit,Spin-Spin,Magnetic field MRCI      
  Miquel Garcia-Rates    : C-PCM and meta-GGA Hessian, CCSD/C-PCM, Gaussian charge scheme 
  Tiago L. C. Gouveia    : GS-ROHF, GS-ROCIS                             
  Yang Guo               : DLPNO-NEVPT2, F12-NEVPT2, CIM, IAO-localization        
  Andreas Hansen         : Spin unrestricted coupled pair/coupled cluster methods 
  Ingolf Harden          : AUTO-CI MPn and infrastructure                
  Benjamin Helmich-Paris : MC-RPA, TRAH-(SCF,CASSCF), AVAS, COSX integrals, SCF dyn. polar. 
  Lee Huntington         : MR-EOM, pCC                                   
  Robert Izsak           : Overlap fitted RIJCOSX, COSX-SCS-MP3, EOM     
  Riya Kayal             : Wick's Theorem for AUTO-CI, AUTO-CI UHF-CCSDT 
  Emily Kempfer          : AUTO-CI, RHF CISDT and CCSDT                  
  Christian Kollmar      : KDIIS, OOCD, Brueckner-CCSD(T), CCSD density, CASPT2, CASPT2-K, improved NEVPT2 
  Axel Koslowski         : Symmetry handling                             
  Simone Kossmann        : meta-GGA functionals, TD-DFT gradient, OOMP2, (MP2 Hessian; deprecated post 5.0) 
  Lucas Lang             : DCDCAS                                        
  Marvin Lechner         : AUTO-CI (C++ implementation), FIC-MRCC        
  Spencer Leger          : CASSCF response                               
  Dagmar Lenk            : GEPOL surface, SMD, ORCA-2-JSON               
  Dimitrios Liakos       : Extrapolation schemes; Compound Job, initial MDCI parallelization 
  Dimitrios Manganas     : Further ROCIS development; embedding schemes. LFT, Crystal Embedding 
  Dimitrios Pantazis     : SARC Basis sets                               
  Anastasios Papadopoulos: AUTO-CI, single reference methods and gradients 
  Taras Petrenko         : pre 6.0 DFT Hessian and TD-DFT gradient, (ASA, deprecated), ECA, 1-Electron XAS/XES, NRVS 
  Peter Pinski           : DLPNO-MP2, DLPNO-MP2 Gradient                 
  Christoph Reimann      : Effective Core Potentials                     
  Marius Retegan         : Local ZFS, SOC                                
  Christoph Riplinger    : Optimizer, TS searches, QM/MM, DLPNO-CCSD(T), (RO)-DLPNO pert. Triples 
  Michael Roemelt        : Original ROCIS implementation                 
  Masaaki Saitow         : Open-shell DLPNO-CCSD energy and density      
  Barbara Sandhoefer     : DKH picture change effects                    
  Kantharuban Sivalingam : CASSCF convergence/infrastructure, NEVPT2 and variants, FIC-MRCI 
  Bernardo de Souza      : ESD, SOC TD-DFT                               
  Georgi L. Stoychev     : AutoAux, RI-MP2 NMR, DLPNO-MP2 response, X2C  
  Van Anh Tran           : RI-MP2 g-tensors                              
  Willem Van den Heuvel  : Paramagnetic NMR                              
  Zikuan Wang            : NOTCH, Electric field optimization            
  Frank Wennmohs         : Technical directorship and infrastructure     
  Hang Xu                : AUTO-CI-Response properties                   
                                                                         
[FACCTs GmbH]                                                            
  Markus Bursch, Miquel Garcia-Rates, Christoph Riplinger, Bernardo de Souza, Georgi L. Stoychev 
                                                                 
  APM, Basis sets (HGBS, AHGBS, def-TZVP (Ac-Lr), def2-XVPD (La-Lu)), CI-OPT, improved COSX, DLPNO-Multilevel,           
  DOCKER, DRACO, updates on ESD, GOAT, IRC, LR-CPCM, MBIS, meta-GGA TD-DFT gradient, ML-optimized integration grids, 
  MM, NACMEs, nearIR, NEB, NEB-TS, NL-DFT gradient (VV10), 2- and 3-layer-ONIOM, interface openCOSMO-RS, QMMM,   
  Crystal-QMMM, SF, symmetry and pop. for TD-DFT, r2SCAN hybrids, SOLVATOR                                   
                                                                         
[Other institutions]                                                     
  V. Asgeirsson          : NEB                                           
  Christoph Bannwarth    : sTDA-DFT, sTD-DFT, PBEh-3c, B97-3c, D3        
  Sebastian Ehlert       : rSCAN, r2SCAN, r2SCAN-3c, D4, dhf basis sets  
  Marvin Friede          : D4 for Fr, Ra, Ac-Lr                          
  Lars Goerigk           : TD-DFT with DH, B97 family of functionals     
  Stefan Grimme          : VdW corrections, initial TS optimization, DFT functionals, gCP, sTDA/sTD-DF 
  Waldemar Hujo          : DFT-NL                                        
  H. Jonsson             : NEB                                           
  Holger Kruse           : gCP                                           
  Marcel Mueller         : wB97X-3c, vDZP basis set                      
  Hagen Neugebauer       : wr2SCAN                                       
  Tobias Risthaus        : range-separated hybrid DFT                    
  Lukas Wittmann         : regularized MP2, r2SCAN double-hybrids, wr2SCAN        
                                                                         
We gratefully acknowledge several colleagues who have allowed us to      
interface, adapt or use parts of their codes:                            
  Ed Valeev, F. Pavosevic, A. Kumar             : LibInt (2-el integral package), F12 methods 
  Garnet Chan, S. Sharma, J. Yang, R. Olivares  : DMRG                   
  Ulf Ekstrom                                   : XCFun DFT Library      
  Mihaly Kallay                                 : mrcc  (arbitrary order and MRCC methods)
  Frank Weinhold                                : gennbo (NPA and NBO analysis)           
  Simon Mueller                                 : openCOSMO-RS                            
  Christopher J. Cramer and Donald G. Truhlar   : smd solvation model                     
  S Lehtola, MJT Oliveira, MAL Marques          : LibXC Library                           
  Liviu Ungur et al                             : ANISO software                          


 Your calculation uses the libint2 library for the computation of 2-el integrals
 For citations please refer to: http://libint.valeyev.net

 Your ORCA version has been built with support for libXC version: 6.2.2
 For citations please refer to: https://libxc.gitlab.io

 This ORCA versions uses:
   CBLAS   interface :  Fast vector & matrix operations
   LAPACKE interface :  Fast linear algebra routines
   SCALAPACK package :  Parallel linear algebra routines
   Shared memory     :  Shared parallel matrices
   BLAS/LAPACK       :  OpenBLAS 0.3.27  USE64BITINT DYNAMIC_ARCH NO_AFFINITY Zen SINGLE_THREADED
        Core in use  :  Zen
   Copyright (c) 2011-2014, The OpenBLAS Project


NOTE: MaxCore=2560 MB was set to SCF,MP2,MDCI,CIPSI,MRCI and CIS
      => If you want to overwrite this, your respective input block should be placed after the MaxCore statement
Your calculation utilizes the atom-pairwise dispersion correction
with the zero-damping scheme (D30)


XCFun DFT library Copyright 2009-2010 Ulf Ekstrom and contributors.
See http://admol.org/xcfun for more information.
This is free software; see the source code for copying conditions.
There is ABSOLUTELY NO WARRANTY; not even for MERCHANTABILITY or FITNESS FOR A PARTICULAR PURPOSE.
For details see the documentation.
Scientific users of this library should cite U. Ekstrom, L. Visscher, R. Bast, A. J. Thorvaldsen and K. Ruud;
J.Chem.Theor.Comp. 2010, DOI: 10.1021/ct100117s
XCFun Version 0.99 

Warning: RI is on but no J-basis has been assigned. Assigning Def2/J (nothing to worry about!)
================================================================================

----- Orbital basis set information -----
Your calculation utilizes the basis: 6-31G**
   H-He, Li-Ne : W. J. Hehre, R. Ditchfield and J.A. Pople, J. Chem. Phys. 56, 2257 (1972).
                 Note: He and Ne are unpublished basis sets taken from the Gaussian program.
                 Note: Li and B from J. D. Dill and J. A. Pople, J. Chem. Phys. 62, 2921 (1975).
   Na - Ar     : M. M. Francl, W. J. Pietro, W. J. Hehre, J. S. Binkley, M. S. Gordon, 
                 D. J. DeFrees and J. A. Pople, J. Chem. Phys. 77, 3654 (1982).
   K - Zn      : V. A. Rassolov, J. A. Pople, M. A. Ratner, and T. L. Windus, J. Chem. Phys. 109, 1223 (1998).

----- AuxJ basis set information -----
Your calculation utilizes the auxiliary basis: def2/J
   F. Weigend, Phys. Chem. Chem. Phys. 8, 1057 (2006).

================================================================================
                                        WARNINGS
                       Please study these warnings very carefully!
================================================================================

WARNING: SinglePoint found together with IRC
         Switching on EnGrad - energy plus gradient calculation

================================================================================
                                       INPUT FILE
================================================================================
NAME = input.inp
|  1> # Automatically generated ORCA input
|  2> 
|  3> # Number of cores
|  4> %pal nprocs 24 end
|  5> # RAM per core
|  6> %maxcore 2560
|  7> 
|  8> ! wB97X-D3 
|  9> ! 6-31G** 
| 10> ! TightSCF 
| 11> ! Freq 
| 12> ! NoSym 
| 13> ! IRC 
| 14> 
| 15> %IRC
| 16>     MAXITER 40
| 17>     END
| 18> 
| 19> %geom
| 20>   Calc_Hess true
| 21> end
| 22> 
| 23> 
| 24> *xyz 0 1 
| 25> H         1.11908790     -4.66011265      1.57567101
| 26> C         0.65541845     -3.70759858      1.33529412
| 27> C         1.44536956     -2.59824283      1.05956982
| 28> C        -0.72788453     -3.58718427      1.29363804
| 29> C         0.89719542     -1.34509377      0.74579185
| 30> H         2.52756132     -2.70502211      1.07926470
| 31> C        -1.29748521     -2.36026846      0.97527988
| 32> H        -1.36508632     -4.44109396      1.50503021
| 33> C        -0.50771580     -1.23660179      0.70144308
| 34> H        -2.37723166     -2.27338675      0.93952963
| 35> B         1.97613667     -0.19659391      0.51159616
| 36> H        -0.92242033      2.72401151      0.93970032
| 37> H        -2.42914286      2.79308707      1.84679985
| 38> H        -2.42046447      1.67799216     -2.31462983
| 39> H        -0.91631322      2.06599911     -1.48702662
| 40> H        -2.74422067      3.43326361     -0.55624857
| 41> H        -3.68310141      2.00255235     -0.17455745
| 42> N        -1.10643290      0.03142628      0.35883470
| 43> C        -0.70799664      0.80071974      2.66632209
| 44> H        -0.57371235     -0.19669936      3.09224394
| 45> H         0.27228035      1.17172282      2.35676361
| 46> H        -1.08480303      1.45808120      3.45604047
| 47> C        -3.03460357      0.23262473      2.04594152
| 48> C        -1.70586485      0.79421826      1.49752282
| 49> C        -1.70921947      0.11837635     -1.00887666
| 50> C        -1.90860257      2.25301694      1.04758785
| 51> C        -1.90479832      1.60789178     -1.35020054
| 52> C        -2.65717472      2.37859236     -0.27303311
| 53> H        -2.91923852     -0.79852449      2.38710019
| 54> H        -3.84933354      0.26705170      1.32117590
| 55> H        -3.34415721      0.82709048      2.91190049
| 56> C        -3.04201195     -0.63601306     -1.20232762
| 57> H        -3.37818426     -0.50783452     -2.23643216
| 58> H        -2.91772938     -1.70816368     -1.03521068
| 59> H        -3.84197148     -0.27846112     -0.55258262
| 60> C        -0.71581232     -0.46788594     -2.02476629
| 61> H         0.27152289     -0.00391168     -1.95399480
| 62> H        -1.09616667     -0.29805911     -3.03682790
| 63> H        -0.59094121     -1.54559993     -1.89095104
| 64> H         2.35123259      0.40722732      1.48659776
| 65> H         0.54274914      0.90856622      0.08562837
| 66> H         1.25149649      1.23542353     -0.01389725
| 67> C         4.46560521      1.57246386     -0.07841259
| 68> N         4.06072144      0.45655408     -0.90669412
| 69> C         2.95025232     -0.34606245     -0.69103884
| 70> C         2.93055015     -1.26335243     -1.73507337
| 71> C         4.03253169     -1.01300836     -2.58074707
| 72> C         4.70572831      0.06060275     -2.03832732
| 73> H         3.71301622      2.36700973     -0.08980893
| 74> H         5.40265425      1.97758118     -0.46432001
| 75> H         4.61990567      1.25394624      0.95511540
| 76> H         2.18720674     -2.04161338     -1.85095713
| 77> H         4.31094766     -1.55011331     -3.47665202
| 78> H         5.59932665      0.57087808     -2.37248622
| 79> *
| 80> 
| 81> 
| 82>                          ****END OF INPUT****
================================================================================

                     *******************************
                     * Energy+Gradient Calculation *
                     *******************************

---------------------------------
CARTESIAN COORDINATES (ANGSTROEM)
---------------------------------
  H      1.119088   -4.660113    1.575671
  C      0.655418   -3.707599    1.335294
  C      1.445370   -2.598243    1.059570
  C     -0.727885   -3.587184    1.293638
  C      0.897195   -1.345094    0.745792
  H      2.527561   -2.705022    1.079265
  C     -1.297485   -2.360268    0.975280
  H     -1.365086   -4.441094    1.505030
  C     -0.507716   -1.236602    0.701443
  H     -2.377232   -2.273387    0.939530
  B      1.976137   -0.196594    0.511596
  H     -0.922420    2.724012    0.939700
  H     -2.429143    2.793087    1.846800
  H     -2.420464    1.677992   -2.314630
  H     -0.916313    2.065999   -1.487027
  H     -2.744221    3.433264   -0.556249
  H     -3.683101    2.002552   -0.174557
  N     -1.106433    0.031426    0.358835
  C     -0.707997    0.800720    2.666322
  H     -0.573712   -0.196699    3.092244
  H      0.272280    1.171723    2.356764
  H     -1.084803    1.458081    3.456040
  C     -3.034604    0.232625    2.045942
  C     -1.705865    0.794218    1.497523
  C     -1.709219    0.118376   -1.008877
  C     -1.908603    2.253017    1.047588
  C     -1.904798    1.607892   -1.350201
  C     -2.657175    2.378592   -0.273033
  H     -2.919239   -0.798524    2.387100
  H     -3.849334    0.267052    1.321176
  H     -3.344157    0.827090    2.911900
  C     -3.042012   -0.636013   -1.202328
  H     -3.378184   -0.507835   -2.236432
  H     -2.917729   -1.708164   -1.035211
  H     -3.841971   -0.278461   -0.552583
  C     -0.715812   -0.467886   -2.024766
  H      0.271523   -0.003912   -1.953995
  H     -1.096167   -0.298059   -3.036828
  H     -0.590941   -1.545600   -1.890951
  H      2.351233    0.407227    1.486598
  H      0.542749    0.908566    0.085628
  H      1.251496    1.235424   -0.013897
  C      4.465605    1.572464   -0.078413
  N      4.060721    0.456554   -0.906694
  C      2.950252   -0.346062   -0.691039
  C      2.930550   -1.263352   -1.735073
  C      4.032532   -1.013008   -2.580747
  C      4.705728    0.060603   -2.038327
  H      3.713016    2.367010   -0.089809
  H      5.402654    1.977581   -0.464320
  H      4.619906    1.253946    0.955115
  H      2.187207   -2.041613   -1.850957
  H      4.310948   -1.550113   -3.476652
  H      5.599327    0.570878   -2.372486

----------------------------
CARTESIAN COORDINATES (A.U.)
----------------------------
  NO LB      ZA    FRAG     MASS         X           Y           Z
   0 H     1.0000    0     1.008    2.114770   -8.806337    2.977587
   1 C     6.0000    0    12.011    1.238561   -7.006346    2.523340
   2 C     6.0000    0    12.011    2.731353   -4.909967    2.002297
   3 C     6.0000    0    12.011   -1.375502   -6.778796    2.444622
   4 C     6.0000    0    12.011    1.695454   -2.541859    1.409342
   5 H     1.0000    0     1.008    4.776399   -5.111751    2.039515
   6 C     6.0000    0    12.011   -2.451892   -4.460261    1.843012
   7 H     1.0000    0     1.008   -2.579639   -8.392451    2.844095
   8 C     6.0000    0    12.011   -0.959444   -2.336839    1.325535
   9 H     1.0000    0     1.008   -4.492317   -4.296078    1.775454
  10 B     5.0000    0    10.810    3.734357   -0.371509    0.966777
  11 H     1.0000    0     1.008   -1.743122    5.147636    1.775776
  12 H     1.0000    0     1.008   -4.590415    5.278170    3.489946
  13 H     1.0000    0     1.008   -4.574015    3.170946   -4.374016
  14 H     1.0000    0     1.008   -1.731581    3.904173   -2.810073
  15 H     1.0000    0     1.008   -5.185826    6.487928   -1.051157
  16 H     1.0000    0     1.008   -6.960053    3.784276   -0.329866
  17 N     7.0000    0    14.007   -2.090855    0.059387    0.678099
  18 C     6.0000    0    12.011   -1.337920    1.513141    5.038619
  19 H     1.0000    0     1.008   -1.084159   -0.371708    5.843494
  20 H     1.0000    0     1.008    0.514535    2.214235    4.453638
  21 H     1.0000    0     1.008   -2.049981    2.755374    6.530970
  22 C     6.0000    0    12.011   -5.734570    0.439597    3.866269
  23 C     6.0000    0    12.011   -3.223617    1.500855    2.829908
  24 C     6.0000    0    12.011   -3.229957    0.223699   -1.906501
  25 C     6.0000    0    12.011   -3.606736    4.257585    1.979654
  26 C     6.0000    0    12.011   -3.599547    3.038475   -2.551509
  27 C     6.0000    0    12.011   -5.021333    4.494888   -0.515958
  28 H     1.0000    0     1.008   -5.516561   -1.508993    4.510966
  29 H     1.0000    0     1.008   -7.274186    0.504655    2.496661
  30 H     1.0000    0     1.008   -6.319541    1.562974    5.502694
  31 C     6.0000    0    12.011   -5.748569   -1.201891   -2.272070
  32 H     1.0000    0     1.008   -6.383843   -0.959668   -4.226244
  33 H     1.0000    0     1.008   -5.513709   -3.227962   -1.956265
  34 H     1.0000    0     1.008   -7.260274   -0.526215   -1.044230
  35 C     6.0000    0    12.011   -1.352689   -0.884176   -3.826254
  36 H     1.0000    0     1.008    0.513104   -0.007392   -3.692515
  37 H     1.0000    0     1.008   -2.071455   -0.563250   -5.738773
  38 H     1.0000    0     1.008   -1.116717   -2.920761   -3.573380
  39 H     1.0000    0     1.008    4.443186    0.769548    2.809263
  40 H     1.0000    0     1.008    1.025647    1.716941    0.161814
  41 H     1.0000    0     1.008    2.364986    2.334612   -0.026262
  42 C     6.0000    0    12.011    8.438771    2.971526   -0.148178
  43 N     7.0000    0    14.007    7.673651    0.862762   -1.713404
  44 C     6.0000    0    12.011    5.575169   -0.653963   -1.305874
  45 C     6.0000    0    12.011    5.537937   -2.387390   -3.278813
  46 C     6.0000    0    12.011    7.620381   -1.914308   -4.876905
  47 C     6.0000    0    12.011    8.892538    0.114523   -3.851880
  48 H     1.0000    0     1.008    7.016584    4.473000   -0.169714
  49 H     1.0000    0     1.008   10.209537    3.737087   -0.877438
  50 H     1.0000    0     1.008    8.730356    2.369615    1.804907
  51 H     1.0000    0     1.008    4.133222   -3.858090   -3.497802
  52 H     1.0000    0     1.008    8.146510   -2.929290   -6.569920
  53 H     1.0000    0     1.008   10.581194    1.078803   -4.483349

--------------------------------
INTERNAL COORDINATES (ANGSTROEM)
--------------------------------
 H      0   0   0     0.000000000000     0.00000000     0.00000000
 C      1   0   0     1.086302656564     0.00000000     0.00000000
 C      2   1   0     1.389502366266   120.08631714     0.00000000
 C      2   1   3     1.389158727263   120.50906316   179.67254861
 C      3   2   1     1.403329636543   122.35994916   180.10644518
 H      3   2   1     1.087625260992   118.92718700     0.61482502
 C      4   2   1     1.389647170156   119.44326166   180.41209043
 H      4   2   1     1.086220295056   120.67525891     0.28899087
 C      7   4   2     1.400481738287   121.46877412   359.65406712
 H      7   4   2     1.083826050709   119.12242889   179.70371395
 B      5   3   2     1.593114487595   114.33574813   178.05272523
 H      9   7   4     3.989386427980   136.57353265   206.14578638
 H     12   9   7     1.760060729840    99.13332637    10.51003384
 H     12   9   7     3.732151852640    73.22569690   276.20436613
 H     14  12   9     1.760098704427    35.43155481   277.97953652
 H     12   9   7     2.461677903722   109.06722161   297.95832906
 H     16  12   9     1.753316818068    91.65597970    37.36253947
 N      9   7   4     1.443515796307   121.15225737   179.39545362
 C     18   9   7     2.464764073069    89.13633512   101.20838373
 H     19  18   9     1.092834184080    95.73162810   341.54017948
 H     19  18   9     1.092891904551    89.18502575    89.60959539
 H     19  18   9     1.094423256491   143.83829149   209.92613372
 C     19  18   9     2.474005618172    62.71284637   254.26739007
 C     18   9   7     1.495921422422   115.68734657    75.74395119
 C     18   9   7     1.497179457486   115.77411133   287.11267723
 C     13  12   9     1.096073793034    36.70846689   320.41668018
 C     14  12   9     1.095878413394    20.22783068   357.26363302
 C     16  12   9     1.095499630201    60.44305132    16.70111881
 H     23  19  18     1.092230308490    92.24249134    92.11481094
 H     23  19  18     1.090988242014   149.49984665   318.49264996
 H     23  19  18     1.095033297066    86.72585031   199.20248201
 C     25  18   9     1.543652308841   115.70385531    73.53084550
 H     32  25  18     1.094903539028   109.04090525   180.50146551
 H     32  25  18     1.092191000149   111.24234608   298.42359010
 H     32  25  18     1.090847012399   113.47417423    60.84771317
 C     25  18   9     1.537072860566   108.74830402   313.40886221
 H     36  25  18     1.093211569023   112.27426526   306.39514736
 H     36  25  18     1.094431033089   109.11011153   186.78894979
 H     36  25  18     1.093145351491   111.65099881    67.72190579
 H     11   5   3     1.206617233012   116.90494555   272.94240107
 H     11   5   3     1.859415844350    86.56466096   176.47886540
 H     41  11   5     0.786806110976    65.25922197   185.04653010
 C     40  11   5     2.877082752714    89.51805660   168.38282556
 N     43  40  11     1.447492935129    78.08093710   343.24309037
 C     44  43  40     1.387026373396   125.52635196     8.62516207
 C     45  44  43     1.389898263451   106.04880890   178.72631768
 C     46  45  44     1.411452965832   108.77994410     0.04754144
 C     44  43  40     1.361398184742   124.56479282   187.00540027
 H     43  40  11     1.094451097112    78.13192471    98.18898511
 H     43  40  11     1.091377791207   166.82039634   219.81343050
 H     43  40  11     1.092447807595    58.06849791   219.16148743
 H     46  45  44     1.082441027177   124.37876656   179.32668802
 H     47  46  45     1.081037862010   127.55314971   179.48018688
 H     48  44  43     1.081924709075   120.72189956     1.32397755

---------------------------
INTERNAL COORDINATES (A.U.)
---------------------------
 H      0   0   0     0.000000000000     0.00000000     0.00000000
 C      1   0   0     2.052814519456     0.00000000     0.00000000
 C      2   1   0     2.625778934678   120.08631714     0.00000000
 C      2   1   3     2.625129551073   120.50906316   179.67254861
 C      3   2   1     2.651908688682   122.35994916   180.10644518
 H      3   2   1     2.055313879609   118.92718700     0.61482502
 C      4   2   1     2.626052574374   119.44326166   180.41209043
 H      4   2   1     2.052658878764   120.67525891     0.28899087
 C      7   4   2     2.646526940920   121.46877412   359.65406712
 H      7   4   2     2.048134412649   119.12242889   179.70371395
 B      5   3   2     3.010550081537   114.33574813   178.05272523
 H      9   7   4     7.538847791265   136.57353265   206.14578638
 H     12   9   7     3.326032758467    99.13332637    10.51003384
 H     12   9   7     7.052744891696    73.22569690   276.20436613
 H     14  12   9     3.326104520037    35.43155481   277.97953652
 H     12   9   7     4.651897067959   109.06722161   297.95832906
 H     16  12   9     3.313288612147    91.65597970    37.36253947
 N      9   7   4     2.727849525009   121.15225737   179.39545362
 C     18   9   7     4.657729082828    89.13633512   101.20838373
 H     19  18   9     2.065157317698    95.73162810   341.54017948
 H     19  18   9     2.065266393581    89.18502575    89.60959539
 H     19  18   9     2.068160229362   143.83829149   209.92613372
 C     19  18   9     4.675193072127    62.71284637   254.26739007
 C     18   9   7     2.826881806244   115.68734657    75.74395119
 C     18   9   7     2.829259147982   115.77411133   287.11267723
 C     13  12   9     2.071279291402    36.70846689   320.41668018
 C     14  12   9     2.070910077390    20.22783068   357.26363302
 C     16  12   9     2.070194280892    60.44305132    16.70111881
 H     23  19  18     2.064016158215    92.24249134    92.11481094
 H     23  19  18     2.061668992735   149.49984665   318.49264996
 H     23  19  18     2.069313038980    86.72585031   199.20248201
 C     25  18   9     2.917080109704   115.70385531    73.53084550
 H     32  25  18     2.069067831824   109.04090525   180.50146551
 H     32  25  18     2.063941876216   111.24234608   298.42359010
 H     32  25  18     2.061402107441   113.47417423    60.84771317
 C     25  18   9     2.904646754353   108.74830402   313.40886221
 H     36  25  18     2.065870471887   112.27426526   306.39514736
 H     36  25  18     2.068174925002   109.11011153   186.78894979
 H     36  25  18     2.065745338888   111.65099881    67.72190579
 H     11   5   3     2.280176118863   116.90494555   272.94240107
 H     11   5   3     3.513786714895    86.56466096   176.47886540
 H     41  11   5     1.486848070240    65.25922197   185.04653010
 C     40  11   5     5.436898467258    89.51805660   168.38282556
 N     43  40  11     2.735365228180    78.08093710   343.24309037
 C     44  43  40     2.621099986244   125.52635196     8.62516207
 C     45  44  43     2.626527071935   106.04880890   178.72631768
 C     46  45  44     2.667259556334   108.77994410     0.04754144
 C     44  43  40     2.572669728379   124.56479282   187.00540027
 H     43  40  11     2.068212840510    78.13192471    98.18898511
 H     43  40  11     2.062405134025   166.82039634   219.81343050
 H     43  40  11     2.064427171958    58.06849791   219.16148743
 H     46  45  44     2.045517097486   124.37876656   179.32668802
 H     47  46  45     2.042865499599   127.55314971   179.48018688
 H     48  44  43     2.044541397674   120.72189956     1.32397755

---------------------
BASIS SET INFORMATION
---------------------
There are 4 groups of distinct atoms

 Group   1 Type H   : 4s1p contracted to 2s1p pattern {31/1}
 Group   2 Type C   : 10s4p1d contracted to 3s2p1d pattern {631/31/1}
 Group   3 Type B   : 10s4p1d contracted to 3s2p1d pattern {631/31/1}
 Group   4 Type N   : 10s4p1d contracted to 3s2p1d pattern {631/31/1}

Atom   0H    basis set group =>   1
Atom   1C    basis set group =>   2
Atom   2C    basis set group =>   2
Atom   3C    basis set group =>   2
Atom   4C    basis set group =>   2
Atom   5H    basis set group =>   1
Atom   6C    basis set group =>   2
Atom   7H    basis set group =>   1
Atom   8C    basis set group =>   2
Atom   9H    basis set group =>   1
Atom  10B    basis set group =>   3
Atom  11H    basis set group =>   1
Atom  12H    basis set group =>   1
Atom  13H    basis set group =>   1
Atom  14H    basis set group =>   1
Atom  15H    basis set group =>   1
Atom  16H    basis set group =>   1
Atom  17N    basis set group =>   4
Atom  18C    basis set group =>   2
Atom  19H    basis set group =>   1
Atom  20H    basis set group =>   1
Atom  21H    basis set group =>   1
Atom  22C    basis set group =>   2
Atom  23C    basis set group =>   2
Atom  24C    basis set group =>   2
Atom  25C    basis set group =>   2
Atom  26C    basis set group =>   2
Atom  27C    basis set group =>   2
Atom  28H    basis set group =>   1
Atom  29H    basis set group =>   1
Atom  30H    basis set group =>   1
Atom  31C    basis set group =>   2
Atom  32H    basis set group =>   1
Atom  33H    basis set group =>   1
Atom  34H    basis set group =>   1
Atom  35C    basis set group =>   2
Atom  36H    basis set group =>   1
Atom  37H    basis set group =>   1
Atom  38H    basis set group =>   1
Atom  39H    basis set group =>   1
Atom  40H    basis set group =>   1
Atom  41H    basis set group =>   1
Atom  42C    basis set group =>   2
Atom  43N    basis set group =>   4
Atom  44C    basis set group =>   2
Atom  45C    basis set group =>   2
Atom  46C    basis set group =>   2
Atom  47C    basis set group =>   2
Atom  48H    basis set group =>   1
Atom  49H    basis set group =>   1
Atom  50H    basis set group =>   1
Atom  51H    basis set group =>   1
Atom  52H    basis set group =>   1
Atom  53H    basis set group =>   1
---------------------------------
AUXILIARY/J BASIS SET INFORMATION
---------------------------------
There are 4 groups of distinct atoms

 Group   1 Type H   : 5s2p1d contracted to 3s1p1d pattern {311/2/1}
 Group   2 Type C   : 12s5p4d2f1g contracted to 6s4p3d1f1g pattern {711111/2111/211/2/1}
 Group   3 Type B   : 12s5p4d2f1g contracted to 6s4p3d1f1g pattern {711111/2111/211/2/1}
 Group   4 Type N   : 12s5p4d2f1g contracted to 6s4p3d1f1g pattern {711111/2111/211/2/1}

Atom   0H    basis set group =>   1
Atom   1C    basis set group =>   2
Atom   2C    basis set group =>   2
Atom   3C    basis set group =>   2
Atom   4C    basis set group =>   2
Atom   5H    basis set group =>   1
Atom   6C    basis set group =>   2
Atom   7H    basis set group =>   1
Atom   8C    basis set group =>   2
Atom   9H    basis set group =>   1
Atom  10B    basis set group =>   3
Atom  11H    basis set group =>   1
Atom  12H    basis set group =>   1
Atom  13H    basis set group =>   1
Atom  14H    basis set group =>   1
Atom  15H    basis set group =>   1
Atom  16H    basis set group =>   1
Atom  17N    basis set group =>   4
Atom  18C    basis set group =>   2
Atom  19H    basis set group =>   1
Atom  20H    basis set group =>   1
Atom  21H    basis set group =>   1
Atom  22C    basis set group =>   2
Atom  23C    basis set group =>   2
Atom  24C    basis set group =>   2
Atom  25C    basis set group =>   2
Atom  26C    basis set group =>   2
Atom  27C    basis set group =>   2
Atom  28H    basis set group =>   1
Atom  29H    basis set group =>   1
Atom  30H    basis set group =>   1
Atom  31C    basis set group =>   2
Atom  32H    basis set group =>   1
Atom  33H    basis set group =>   1
Atom  34H    basis set group =>   1
Atom  35C    basis set group =>   2
Atom  36H    basis set group =>   1
Atom  37H    basis set group =>   1
Atom  38H    basis set group =>   1
Atom  39H    basis set group =>   1
Atom  40H    basis set group =>   1
Atom  41H    basis set group =>   1
Atom  42C    basis set group =>   2
Atom  43N    basis set group =>   4
Atom  44C    basis set group =>   2
Atom  45C    basis set group =>   2
Atom  46C    basis set group =>   2
Atom  47C    basis set group =>   2
Atom  48H    basis set group =>   1
Atom  49H    basis set group =>   1
Atom  50H    basis set group =>   1
Atom  51H    basis set group =>   1
Atom  52H    basis set group =>   1
Atom  53H    basis set group =>   1


           ************************************************************
           *        Program running with 24 parallel MPI-processes    *
           *              working on a common directory               *
           ************************************************************
------------------------------------------------------------------------------
                             ORCA STARTUP CALCULATIONS
                           -- RI-GTO INTEGRALS CHOSEN --
------------------------------------------------------------------------------
------------------------------------------------------------------------------
                   ___                                                        
                  /   \      - P O W E R E D   B Y -                         
                 /     \                                                     
                 |  |  |   _    _      __       _____    __    __             
                 |  |  |  | |  | |    /  \     |  _  \  |  |  /  |          
                  \  \/   | |  | |   /    \    | | | |  |  | /  /          
                 / \  \   | |__| |  /  /\  \   | |_| |  |  |/  /          
                |  |  |   |  __  | /  /__\  \  |    /   |      \           
                |  |  |   | |  | | |   __   |  |    \   |  |\   \          
                \     /   | |  | | |  |  |  |  | |\  \  |  | \   \       
                 \___/    |_|  |_| |__|  |__|  |_| \__\ |__|  \__/        
                                                                              
                      - O R C A' S   B I G   F R I E N D -                    
                                      &                                       
                       - I N T E G R A L  F E E D E R -                       
                                                                              
 v1 FN, 2020, v2 2021, v3 2022-2024                                           
------------------------------------------------------------------------------


----------------------
SHARK INTEGRAL PACKAGE
----------------------

Number of atoms                             ...     54
Number of basis functions                   ...    477
Number of shells                            ...    231
Maximum angular momentum                    ...      2
Integral batch strategy                     ... SHARK/LIBINT Hybrid
RI-J (if used) integral strategy            ... SPLIT-RIJ (Revised 2003 algorithm where possible)
Printlevel                                  ...      1
Contraction scheme used                     ... SEGMENTED contraction
Prescreening option                         ... SCHWARTZ
   Thresh                                   ... 2.500e-11
   Tcut                                     ... 2.500e-12
   Tpresel                                  ... 2.500e-12 
Coulomb Range Separation                    ... NOT USED
Exchange Range Separation                   ... Long Range
   Mu parameter                             ... 2.500e-01
   Scaling (regular/separated)              ... 1.957e-01 8.043e-01
Multipole approximations                    ... NOT USED
Finite Nucleus Model                        ... NOT USED
CABS basis                                  ... NOT available
Auxiliary Coulomb fitting basis             ... AVAILABLE
   # of basis functions in Aux-J            ...   1468
   # of shells in Aux-J                     ...    500
   Maximum angular momentum in Aux-J        ...      4
Auxiliary J/K fitting basis                 ... NOT available
Auxiliary Correlation fitting basis         ... NOT available
Auxiliary 'external' fitting basis          ... NOT available

Checking pre-screening integrals            ... done (  0.0 sec) Dimension = 231
Check shell pair data                       ... done (  0.0 sec)
Shell pair information
Shell pair cut-off parameter TPreSel        ...   2.5e-12
Total number of shell pairs                 ...     26796
Shell pairs after pre-screening             ...     19564
Total number of primitive shell pairs       ...    125826
Primitive shell pairs kept                  ...     53196
          la=0 lb=0:   6484 shell pairs
          la=1 lb=0:   7406 shell pairs
          la=1 lb=1:   2184 shell pairs
          la=2 lb=0:   2111 shell pairs
          la=2 lb=1:   1202 shell pairs
          la=2 lb=2:    177 shell pairs

Calculating one electron integrals          ... done (  0.0 sec)
Calculating RI/J V-Matrix + Cholesky decomp.... done (  0.2 sec)
Calculating Nuclear repulsion               ... done (  0.0 sec) ENN=   2061.866066538665 Eh

Diagonalization of the overlap matrix:
Smallest eigenvalue                        ... 4.149e-04
Time for diagonalization                   ...    0.029 sec
Threshold for overlap eigenvalues          ... 1.000e-07
Number of eigenvalues below threshold      ... 0
Time for construction of square roots      ...    0.071 sec
Total time needed                          ...    0.109 sec

-------------------
DFT GRID GENERATION
-------------------

General Integration Accuracy     IntAcc      ... 4.388
Radial Grid Type                 RadialGrid  ... OptM3 with GC (2021)
Angular Grid (max. ang.)         AngularGrid ... 4 (Lebedev-302)
Angular grid pruning method      GridPruning ... 4 (adaptive)
Weight generation scheme         WeightScheme... mBecke (2022)
Basis function cutoff            BFCut       ... 1.0000e-11
Integration weight cutoff        WCut        ... 1.0000e-14
Partially contracted basis set               ... off
Rotationally invariant grid construction     ... off
Angular grids for H and He will be reduced by one unit

Total number of grid points                  ...   233069
Total number of batches                      ...     3666
Average number of points per batch           ...       63
Average number of grid points per atom       ...     4316

--------------------
COSX GRID GENERATION
--------------------

GRIDX 1
-------
General Integration Accuracy     IntAcc      ... 3.816
Radial Grid Type                 RadialGrid  ... OptM3 with GC (2021)
Angular Grid (max. ang.)         AngularGrid ... 1 (Lebedev-50)
Angular grid pruning method      GridPruning ... 4 (adaptive)
Weight generation scheme         WeightScheme... mBecke (2022)
Basis function cutoff            BFCut       ... 1.0000e-11
Integration weight cutoff        WCut        ... 1.0000e-14
Partially contracted basis set               ... on
Rotationally invariant grid construction     ... off
Angular grids for H and He will be reduced by one unit

Total number of grid points                  ...    29625
Total number of batches                      ...      259
Average number of points per batch           ...      114
Average number of grid points per atom       ...      549
UseSFitting                                  ... on

GRIDX 2
-------
General Integration Accuracy     IntAcc      ... 4.020
Radial Grid Type                 RadialGrid  ... OptM3 with GC (2021)
Angular Grid (max. ang.)         AngularGrid ... 2 (Lebedev-110)
Angular grid pruning method      GridPruning ... 4 (adaptive)
Weight generation scheme         WeightScheme... mBecke (2022)
Basis function cutoff            BFCut       ... 1.0000e-11
Integration weight cutoff        WCut        ... 1.0000e-14
Partially contracted basis set               ... on
Rotationally invariant grid construction     ... off
Angular grids for H and He will be reduced by one unit

Total number of grid points                  ...    61680
Total number of batches                      ...      512
Average number of points per batch           ...      120
Average number of grid points per atom       ...     1142
UseSFitting                                  ... on

GRIDX 3
-------
General Integration Accuracy     IntAcc      ... 4.338
Radial Grid Type                 RadialGrid  ... OptM3 with GC (2021)
Angular Grid (max. ang.)         AngularGrid ... 3 (Lebedev-194)
Angular grid pruning method      GridPruning ... 4 (adaptive)
Weight generation scheme         WeightScheme... mBecke (2022)
Basis function cutoff            BFCut       ... 1.0000e-11
Integration weight cutoff        WCut        ... 1.0000e-14
Partially contracted basis set               ... on
Rotationally invariant grid construction     ... off
Angular grids for H and He will be reduced by one unit

Total number of grid points                  ...   133652
Total number of batches                      ...     1071
Average number of points per batch           ...      124
Average number of grid points per atom       ...     2475
UseSFitting                                  ... on
Initializing property integral containers    ... done (  0.0 sec)

SHARK setup successfully completed in   4.4 seconds

Maximum memory used throughout the entire STARTUP-calculation: 68.1 MB


           ************************************************************
           *        Program running with 24 parallel MPI-processes    *
           *              working on a common directory               *
           ************************************************************
-------------------------------------------------------------------------------
                                 ORCA GUESS
                   Start orbitals & Density for SCF / CASSCF
-------------------------------------------------------------------------------

------------
SCF SETTINGS
------------
Hamiltonian:
 Density Functional     Method          .... DFT(GTOs)
 Exchange Functional    Exchange        .... WB97X-D3
 Correlation Functional Correlation     .... WB97X-D3
 Gradients option       PostSCFGGA      .... off
 Hybrid DFT is turned on
   Fraction HF Exchange ScalHFX         ....  0.195728
   Scaling of DF-GGA-X  ScalDFX         ....  0.000000
   Scaling of DF-GGA-C  ScalDFC         ....  1.000000
   Scaling of DF-LDA-C  ScalLDAC        ....  1.000000
   Perturbative correction              ....  0.000000
 Long-range corrected/Screened/Range-Separated Hybrid DFT is turned on
   Amount of maximum screened exact exchange              ....  0.804272
   Range separation parameter mu (erf(mu*r12)/r12)        ....  0.250000
 RI-approximation to the Coulomb term is turned on
   Number of AuxJ basis functions       .... 1468
   RIJ-COSX (HFX calculated with COS-X)).... on


General Settings:
 Integral files         IntName         .... input
 Hartree-Fock type      HFTyp           .... RHF
 Total Charge           Charge          ....    0
 Multiplicity           Mult            ....    1
 Number of Electrons    NEL             ....  170
 Basis Dimension        Dim             ....  477
 Nuclear Repulsion      ENuc            ....   2061.8660665387 Eh

Convergence Acceleration:
 AO-DIIS                CNVDIIS         .... on
   Start iteration      DIISMaxIt       ....    12
   Startup error        DIISStart       ....  0.200000
   # of expansion vecs  DIISMaxEq       ....     5
   Bias factor          DIISBfac        ....   1.050
   Max. coefficient     DIISMaxC        ....  10.000
 MO-DIIS                CNVKDIIS        .... off
 Trust-Rad. Augm. Hess. CNVTRAH         .... auto
   Auto Start mean grad. ratio tolernc. ....  1.125000
   Auto Start start iteration           ....    50
   Auto Start num. interpolation iter.  ....    10
   Max. Number of Micro iterations      ....    24
   Max. Number of Macro iterations      .... Maxiter - #DIIS iter
   Number of Davidson start vectors     ....     2
   Converg. threshold    (grad. norm)   ....   1.000e-05
   Grad. Scal. Fac. for Micro threshold ....   0.100
   Minimum threshold for Micro iter.    ....   1.000e-02
   NR start threshold (gradient norm)   ....   1.000e-04
   Initial trust radius                 ....   0.400
   Minimum AH scaling param. (alpha)    ....   1.000
   Maximum AH scaling param. (alpha)    .... 1000.000
   Quad. conv. algorithm                .... NR
   White noise on init. David. guess    .... on
   Maximum white noise                  ....   0.010
   Pseudo random numbers                .... off
   Inactive MOs                         .... canonical
   Orbital update algorithm             .... Taylor
   Preconditioner                       .... Diag
   Full preconditioner red. dimension   ....   250
 SOSCF                  CNVSOSCF        .... on
   Start iteration      SOSCFMaxIt      ....   150
   Startup grad/error   SOSCFStart      ....  0.003300
   Hessian update       SOSCFHessUp     .... L-BFGS
 Level Shifting         CNVShift        .... on
   Level shift para.    LevelShift      ....    0.2500
   Turn off err/grad.   ShiftErr        ....    0.0010
 Zerner damping         CNVZerner       .... off
 Static damping         CNVDamp         .... on
   Fraction old density DampFac         ....    0.7000
   Max. Damping (<1)    DampMax         ....    0.9800
   Min. Damping (>=0)   DampMin         ....    0.0000
   Turn off err/grad.   DampErr         ....    0.1000

SCF Procedure:
 Maximum # iterations   MaxIter         ....   125
 SCF integral mode      SCFMode         .... Direct
   Integral package                     .... SHARK and LIBINT hybrid scheme
 Reset frequency        DirectResetFreq ....    20
 Integral Threshold     Thresh          ....  2.500e-11 Eh
 Primitive CutOff       TCut            ....  2.500e-12 Eh

Convergence Tolerance:
 Convergence Check Mode ConvCheckMode   .... Total+1el-Energy
 Convergence forced     ConvForced      .... 0
 Energy Change          TolE            ....  1.000e-08 Eh
 1-El. energy change                    ....  1.000e-05 Eh
 Orbital Gradient       TolG            ....  1.000e-05
 Orbital Rotation angle TolX            ....  1.000e-05
 DIIS Error             TolErr          ....  5.000e-07

------------------------------
INITIAL GUESS: MODEL POTENTIAL
------------------------------
Loading Hartree-Fock densities                     ... done
Calculating cut-offs                               ... done
Initializing the effective Hamiltonian             ... done
Setting up the integral package (SHARK)            ... done
Starting the Coulomb interaction                   ... done (   0.2 sec)
Making the grid                                    ... done (   0.4 sec)
Mapping shells                                     ... done
Starting the XC term evaluation                    ... done (   0.1 sec)
  promolecular density results
     # of electrons  =    169.985187591
     EX              =   -128.409770239
     EC              =     -5.674299228
     EX+EC           =   -134.084069468
Transforming the Hamiltonian                       ... done (   0.0 sec)
Diagonalizing the Hamiltonian                      ... done (   0.0 sec)
Back transforming the eigenvectors                 ... done (   0.0 sec)
Now organizing SCF variables                       ... done
                      ------------------
                      INITIAL GUESS DONE (   0.8 sec)
                      ------------------
             **** ENERGY FILE WAS UPDATED (input.en.tmp) ****
Finished Guess after   1.5 sec
Maximum memory used throughout the entire GUESS-calculation: 42.6 MB


           ************************************************************
           *        Program running with 24 parallel MPI-processes    *
           *              working on a common directory               *
           ************************************************************

-------------------------------------------------------------------------------------------
                                      ORCA LEAN-SCF
                              memory conserving SCF solver
-------------------------------------------------------------------------------------------

----------------------------------------D-I-I-S--------------------------------------------
Iteration    Energy (Eh)           Delta-E    RMSDP     MaxDP     DIISErr   Damp  Time(sec)
-------------------------------------------------------------------------------------------
               ***  Starting incremental Fock matrix formation  ***
    1    -914.3207029857353518     0.00e+00  1.31e-03  4.73e-02  1.59e-01  0.700   5.4
    2    -914.5427766461671126    -2.22e-01  1.03e-03  3.41e-02  9.59e-02  0.700   2.5
                               ***Turning on AO-DIIS***
    3    -914.6627458609164023    -1.20e-01  5.38e-04  1.72e-02  4.99e-02  0.700   2.4
    4    -914.7344100011464434    -7.17e-02  1.15e-03  3.48e-02  3.16e-02  0.000   2.3
    5    -914.8861459590448248    -1.52e-01  1.05e-04  4.53e-03  3.48e-03  0.000   2.6
                              *** Initializing SOSCF ***
---------------------------------------S-O-S-C-F--------------------------------------
Iteration    Energy (Eh)           Delta-E    RMSDP     MaxDP     MaxGrad    Time(sec)
--------------------------------------------------------------------------------------
    6    -914.8864659873952405    -3.20e-04  5.26e-05  1.68e-03  1.16e-03     2.2
               *** Restarting incremental Fock matrix formation ***
    7    -914.8865021300725857    -3.61e-05  3.56e-05  1.26e-03  9.54e-04     5.1
    8    -914.8865241969747331    -2.21e-05  3.44e-05  1.27e-03  3.60e-04     3.5
    9    -914.8865309413581599    -6.74e-06  1.09e-05  3.64e-04  1.37e-04     3.5
   10    -914.8865322051619842    -1.26e-06  2.86e-06  1.17e-04  2.61e-05     3.0
   11    -914.8865322559349806    -5.08e-08  1.19e-06  4.89e-05  2.03e-05     2.7
   12    -914.8865322953424766    -3.94e-08  3.45e-07  1.19e-05  4.42e-06     2.2
   13    -914.8865322861856839     9.16e-09  1.59e-07  8.07e-06  3.75e-06     1.7
                 **** Energy Check signals convergence ****

               *****************************************************
               *                     SUCCESS                       *
               *           SCF CONVERGED AFTER  13 CYCLES          *
               *****************************************************

Recomputing exchange energy using gridx3       ... done (    8.947 sec)
Old exchange energy                            :    -43.976785299 Eh
New exchange energy                            :    -43.976831583 Eh
Exchange energy change after final integration :     -0.000046285 Eh
Total energy after final integration           :   -914.886578571 Eh
             **** ENERGY FILE WAS UPDATED (input.en.tmp) ****

----------------
TOTAL SCF ENERGY
----------------

Total Energy       :       -914.88657857070496 Eh          -24895.32946 eV

Components:
Nuclear Repulsion  :       2061.86606653866465 Eh           56106.22806 eV
Electronic Energy  :      -2976.75259882485034 Eh          -81001.55625 eV
One Electron Energy:      -5335.40979010408682 Eh         -145183.88139 eV
Two Electron Energy:       2358.65719127923649 Eh           64182.32514 eV

Virial components:
Potential Energy   :      -1823.24406854460631 Eh          -49612.99338 eV
Kinetic Energy     :        908.35748997390135 Eh           24717.66392 eV
Virial Ratio       :          2.00718779629041

DFT components:
N(Alpha)           :       84.999921861606 electrons
N(Beta)            :       84.999921861606 electrons
N(Total)           :      169.999843723211 electrons
E(XC)              :      -94.053607664329 Eh       

---------------
SCF CONVERGENCE
---------------

  Last Energy change         ...   -9.1568e-09  Tolerance :   1.0000e-08
  Last MAX-Density change    ...    8.0673e-06  Tolerance :   1.0000e-07
  Last RMS-Density change    ...    1.5863e-07  Tolerance :   5.0000e-09
  Last DIIS Error            ...    1.1605e-03  Tolerance :   5.0000e-07
  Last Orbital Gradient      ...    3.7506e-06  Tolerance :   1.0000e-05
  Last Orbital Rotation      ...    6.7721e-06  Tolerance :   1.0000e-05


----------------
ORBITAL ENERGIES
----------------

  NO   OCC          E(Eh)            E(eV) 
   0   2.0000     -14.472567      -393.8186 
   1   2.0000     -14.430964      -392.6865 
   2   2.0000     -10.325789      -280.9790 
   3   2.0000     -10.325037      -280.9585 
   4   2.0000     -10.319689      -280.8130 
   5   2.0000     -10.311154      -280.5808 
   6   2.0000     -10.294953      -280.1399 
   7   2.0000     -10.280818      -279.7553 
   8   2.0000     -10.279508      -279.7196 
   9   2.0000     -10.279320      -279.7145 
  10   2.0000     -10.279206      -279.7114 
  11   2.0000     -10.277781      -279.6726 
  12   2.0000     -10.276972      -279.6506 
  13   2.0000     -10.276920      -279.6492 
  14   2.0000     -10.268879      -279.4304 
  15   2.0000     -10.268256      -279.4134 
  16   2.0000     -10.267069      -279.3811 
  17   2.0000     -10.266022      -279.3527 
  18   2.0000     -10.265574      -279.3405 
  19   2.0000     -10.262927      -279.2684 
  20   2.0000     -10.255242      -279.0593 
  21   2.0000     -10.253756      -279.0189 
  22   2.0000      -6.831668      -185.8991 
  23   2.0000      -1.087402       -29.5897 
  24   2.0000      -1.047921       -28.5154 
  25   2.0000      -0.959154       -26.0999 
  26   2.0000      -0.924017       -25.1438 
  27   2.0000      -0.913900       -24.8685 
  28   2.0000      -0.904894       -24.6234 
  29   2.0000      -0.856436       -23.3048 
  30   2.0000      -0.851768       -23.1778 
  31   2.0000      -0.826756       -22.4972 
  32   2.0000      -0.817324       -22.2405 
  33   2.0000      -0.800106       -21.7720 
  34   2.0000      -0.791067       -21.5260 
  35   2.0000      -0.790076       -21.4991 
  36   2.0000      -0.784926       -21.3589 
  37   2.0000      -0.725550       -19.7432 
  38   2.0000      -0.708869       -19.2893 
  39   2.0000      -0.689709       -18.7679 
  40   2.0000      -0.681611       -18.5476 
  41   2.0000      -0.666181       -18.1277 
  42   2.0000      -0.657552       -17.8929 
  43   2.0000      -0.632718       -17.2171 
  44   2.0000      -0.620985       -16.8978 
  45   2.0000      -0.604222       -16.4417 
  46   2.0000      -0.591617       -16.0987 
  47   2.0000      -0.572920       -15.5899 
  48   2.0000      -0.570846       -15.5335 
  49   2.0000      -0.562961       -15.3189 
  50   2.0000      -0.555849       -15.1254 
  51   2.0000      -0.548416       -14.9232 
  52   2.0000      -0.534502       -14.5445 
  53   2.0000      -0.527534       -14.3549 
  54   2.0000      -0.523586       -14.2475 
  55   2.0000      -0.516288       -14.0489 
  56   2.0000      -0.514214       -13.9925 
  57   2.0000      -0.506995       -13.7960 
  58   2.0000      -0.501688       -13.6516 
  59   2.0000      -0.497706       -13.5433 
  60   2.0000      -0.491110       -13.3638 
  61   2.0000      -0.485048       -13.1988 
  62   2.0000      -0.480567       -13.0769 
  63   2.0000      -0.471278       -12.8241 
  64   2.0000      -0.468482       -12.7481 
  65   2.0000      -0.466315       -12.6891 
  66   2.0000      -0.460827       -12.5397 
  67   2.0000      -0.455480       -12.3942 
  68   2.0000      -0.452819       -12.3218 
  69   2.0000      -0.449880       -12.2419 
  70   2.0000      -0.448717       -12.2102 
  71   2.0000      -0.443062       -12.0563 
  72   2.0000      -0.433409       -11.7937 
  73   2.0000      -0.432666       -11.7734 
  74   2.0000      -0.416739       -11.3400 
  75   2.0000      -0.411346       -11.1933 
  76   2.0000      -0.405617       -11.0374 
  77   2.0000      -0.397979       -10.8296 
  78   2.0000      -0.392165       -10.6713 
  79   2.0000      -0.381713       -10.3869 
  80   2.0000      -0.322343        -8.7714 
  81   2.0000      -0.312929        -8.5152 
  82   2.0000      -0.308213        -8.3869 
  83   2.0000      -0.305337        -8.3086 
  84   2.0000      -0.277224        -7.5436 
  85   0.0000       0.073259         1.9935 
  86   0.0000       0.081849         2.2272 
  87   0.0000       0.086562         2.3555 
  88   0.0000       0.156668         4.2632 
  89   0.0000       0.165085         4.4922 
  90   0.0000       0.171777         4.6743 
  91   0.0000       0.183837         5.0025 
  92   0.0000       0.191585         5.2133 
  93   0.0000       0.193513         5.2658 
  94   0.0000       0.198235         5.3942 
  95   0.0000       0.212042         5.7699 
*Only the first 10 virtual orbitals were printed.

                    ********************************
                    * MULLIKEN POPULATION ANALYSIS *
                    ********************************

-----------------------
MULLIKEN ATOMIC CHARGES
-----------------------
   0 H :    0.117419
   1 C :   -0.106310
   2 C :   -0.176189
   3 C :   -0.144765
   4 C :    0.043405
   5 H :    0.119926
   6 C :   -0.106241
   7 H :    0.117339
   8 C :    0.157908
   9 H :    0.109574
  10 B :   -0.041796
  11 H :    0.105933
  12 H :    0.107665
  13 H :    0.108188
  14 H :    0.108450
  15 H :    0.117601
  16 H :    0.104778
  17 N :   -0.555460
  18 C :   -0.336165
  19 H :    0.132660
  20 H :    0.122113
  21 H :    0.110372
  22 C :   -0.331952
  23 C :    0.149469
  24 C :    0.147516
  25 C :   -0.192953
  26 C :   -0.193438
  27 C :   -0.228726
  28 H :    0.119504
  29 H :    0.105352
  30 H :    0.111834
  31 C :   -0.331613
  32 H :    0.112270
  33 H :    0.119038
  34 H :    0.104488
  35 C :   -0.336990
  36 H :    0.127939
  37 H :    0.111413
  38 H :    0.127250
  39 H :   -0.046593
  40 H :    0.082594
  41 H :    0.017753
  42 C :   -0.202604
  43 N :   -0.444275
  44 C :    0.209092
  45 C :   -0.184016
  46 C :   -0.191929
  47 C :    0.050686
  48 H :    0.138560
  49 H :    0.132543
  50 H :    0.152833
  51 H :    0.113157
  52 H :    0.110761
  53 H :    0.124632
Sum of atomic charges:    0.0000000

--------------------------------
MULLIKEN REDUCED ORBITAL CHARGES
--------------------------------
  0 H s       :     0.870384  s :     0.870384
      pz      :     0.002869  p :     0.012197
      px      :     0.002908
      py      :     0.006420

  1 C s       :     3.157768  s :     3.157768
      pz      :     0.988410  p :     2.913180
      px      :     0.942732
      py      :     0.982038
      dz2     :     0.002842  d :     0.035362
      dxz     :     0.006272
      dyz     :     0.003516
      dx2y2   :     0.011098
      dxy     :     0.011634

  2 C s       :     3.181023  s :     3.181023
      pz      :     0.991259  p :     2.959062
      px      :     1.025627
      py      :     0.942176
      dz2     :     0.003458  d :     0.036105
      dxz     :     0.002712
      dyz     :     0.006214
      dx2y2   :     0.013627
      dxy     :     0.010094

  3 C s       :     3.167424  s :     3.167424
      pz      :     0.999119  p :     2.942041
      px      :     0.954254
      py      :     0.988668
      dz2     :     0.003020  d :     0.035300
      dxz     :     0.005703
      dyz     :     0.003973
      dx2y2   :     0.009986
      dxy     :     0.012618

  4 C s       :     3.190925  s :     3.190925
      pz      :     0.919139  p :     2.733983
      px      :     0.896593
      py      :     0.918251
      dz2     :     0.002918  d :     0.031687
      dxz     :     0.005762
      dyz     :     0.004506
      dx2y2   :     0.009946
      dxy     :     0.008555

  5 H s       :     0.867807  s :     0.867807
      pz      :     0.002547  p :     0.012267
      px      :     0.007828
      py      :     0.001892

  6 C s       :     3.159870  s :     3.159870
      pz      :     0.994460  p :     2.911977
      px      :     0.980541
      py      :     0.936976
      dz2     :     0.003529  d :     0.034394
      dxz     :     0.002713
      dyz     :     0.006565
      dx2y2   :     0.012119
      dxy     :     0.009468

  7 H s       :     0.870413  s :     0.870413
      pz      :     0.002839  p :     0.012248
      px      :     0.003863
      py      :     0.005545

  8 C s       :     3.109630  s :     3.109630
      pz      :     0.986500  p :     2.675718
      px      :     0.890808
      py      :     0.798411
      dz2     :     0.004060  d :     0.056744
      dxz     :     0.007479
      dyz     :     0.007043
      dx2y2   :     0.018862
      dxy     :     0.019300

  9 H s       :     0.877628  s :     0.877628
      pz      :     0.002814  p :     0.012798
      px      :     0.007985
      py      :     0.001999

 10 B s       :     2.974333  s :     2.974333
      pz      :     0.801507  p :     2.014501
      px      :     0.671119
      py      :     0.541874
      dz2     :     0.011161  d :     0.052962
      dxz     :     0.011993
      dyz     :     0.009884
      dx2y2   :     0.005514
      dxy     :     0.014409

 11 H s       :     0.882653  s :     0.882653
      pz      :     0.002175  p :     0.011414
      px      :     0.006274
      py      :     0.002964

 12 H s       :     0.880938  s :     0.880938
      pz      :     0.004753  p :     0.011398
      px      :     0.003348
      py      :     0.003297

 13 H s       :     0.880415  s :     0.880415
      pz      :     0.005985  p :     0.011397
      px      :     0.003326
      py      :     0.002086

 14 H s       :     0.880128  s :     0.880128
      pz      :     0.002255  p :     0.011422
      px      :     0.006311
      py      :     0.002856

 15 H s       :     0.871056  s :     0.871056
      pz      :     0.002442  p :     0.011343
      px      :     0.002261
      py      :     0.006639

 16 H s       :     0.883674  s :     0.883674
      pz      :     0.002176  p :     0.011548
      px      :     0.006454
      py      :     0.002918

 17 N s       :     3.608330  s :     3.608330
      pz      :     1.108634  p :     3.911410
      px      :     1.521904
      py      :     1.280872
      dz2     :     0.008500  d :     0.035721
      dxz     :     0.008288
      dyz     :     0.008188
      dx2y2   :     0.005944
      dxy     :     0.004800

 18 C s       :     3.240793  s :     3.240793
      pz      :     0.989950  p :     3.064681
      px      :     1.007767
      py      :     1.066965
      dz2     :     0.004145  d :     0.030691
      dxz     :     0.006968
      dyz     :     0.008054
      dx2y2   :     0.007386
      dxy     :     0.004139

 19 H s       :     0.855569  s :     0.855569
      pz      :     0.002906  p :     0.011771
      px      :     0.002257
      py      :     0.006609

 20 H s       :     0.866050  s :     0.866050
      pz      :     0.002534  p :     0.011837
      px      :     0.006526
      py      :     0.002776

 21 H s       :     0.878084  s :     0.878084
      pz      :     0.004759  p :     0.011544
      px      :     0.002747
      py      :     0.004038

 22 C s       :     3.235063  s :     3.235063
      pz      :     1.037442  p :     3.066400
      px      :     0.976773
      py      :     1.052185
      dz2     :     0.003306  d :     0.030488
      dxz     :     0.008884
      dyz     :     0.006414
      dx2y2   :     0.008833
      dxy     :     0.003052

 23 C s       :     3.151017  s :     3.151017
      pz      :     0.838660  p :     2.637532
      px      :     0.906109
      py      :     0.892763
      dz2     :     0.009517  d :     0.061982
      dxz     :     0.016716
      dyz     :     0.013111
      dx2y2   :     0.013531
      dxy     :     0.009107

 24 C s       :     3.151861  s :     3.151861
      pz      :     0.794345  p :     2.638790
      px      :     0.906286
      py      :     0.938158
      dz2     :     0.015513  d :     0.061833
      dxz     :     0.015073
      dyz     :     0.008972
      dx2y2   :     0.011648
      dxy     :     0.010627

 25 C s       :     3.213786  s :     3.213786
      pz      :     0.971778  p :     2.941641
      px      :     1.022177
      py      :     0.947685
      dz2     :     0.007780  d :     0.037527
      dxz     :     0.007440
      dyz     :     0.007742
      dx2y2   :     0.007124
      dxy     :     0.007441

 26 C s       :     3.214379  s :     3.214379
      pz      :     0.988166  p :     2.941549
      px      :     1.023437
      py      :     0.929945
      dz2     :     0.009054  d :     0.037511
      dxz     :     0.007115
      dyz     :     0.005373
      dx2y2   :     0.008307
      dxy     :     0.007662

 27 C s       :     3.216414  s :     3.216414
      pz      :     0.943117  p :     2.974080
      px      :     0.996846
      py      :     1.034117
      dz2     :     0.009517  d :     0.038232
      dxz     :     0.007553
      dyz     :     0.006344
      dx2y2   :     0.010129
      dxy     :     0.004688

 28 H s       :     0.868629  s :     0.868629
      pz      :     0.002840  p :     0.011867
      px      :     0.002245
      py      :     0.006782

 29 H s       :     0.882626  s :     0.882626
      pz      :     0.004691  p :     0.012022
      px      :     0.004927
      py      :     0.002404

 30 H s       :     0.876602  s :     0.876602
      pz      :     0.005319  p :     0.011564
      px      :     0.002590
      py      :     0.003655

 31 C s       :     3.235186  s :     3.235186
      pz      :     1.047936  p :     3.065944
      px      :     0.976131
      py      :     1.041877
      dz2     :     0.007622  d :     0.030482
      dxz     :     0.007341
      dyz     :     0.001728
      dx2y2   :     0.008896
      dxy     :     0.004894

 32 H s       :     0.876161  s :     0.876161
      pz      :     0.006547  p :     0.011569
      px      :     0.002655
      py      :     0.002366

 33 H s       :     0.869087  s :     0.869087
      pz      :     0.002565  p :     0.011875
      px      :     0.002258
      py      :     0.007052

 34 H s       :     0.883483  s :     0.883483
      pz      :     0.004321  p :     0.012029
      px      :     0.004824
      py      :     0.002884

 35 C s       :     3.241643  s :     3.241643
      pz      :     0.994546  p :     3.064715
      px      :     1.012971
      py      :     1.057198
      dz2     :     0.008748  d :     0.030633
      dxz     :     0.005805
      dyz     :     0.002393
      dx2y2   :     0.008536
      dxy     :     0.005150

 36 H s       :     0.860097  s :     0.860097
      pz      :     0.002181  p :     0.011964
      px      :     0.006780
      py      :     0.003002

 37 H s       :     0.877033  s :     0.877033
      pz      :     0.006349  p :     0.011553
      px      :     0.002756
      py      :     0.002449

 38 H s       :     0.860965  s :     0.860965
      pz      :     0.002420  p :     0.011786
      px      :     0.002261
      py      :     0.007105

 39 H s       :     1.040612  s :     1.040612
      pz      :     0.003477  p :     0.005981
      px      :     0.001013
      py      :     0.001491

 40 H s       :     0.902622  s :     0.902622
      pz      :     0.000525  p :     0.014784
      px      :     0.012287
      py      :     0.001972

 41 H s       :     0.973268  s :     0.973268
      pz      :     0.000939  p :     0.008979
      px      :     0.005005
      py      :     0.003035

 42 C s       :     3.200075  s :     3.200075
      pz      :     1.002074  p :     2.957798
      px      :     1.054580
      py      :     0.901144
      dz2     :     0.011318  d :     0.044731
      dxz     :     0.005221
      dyz     :     0.009990
      dx2y2   :     0.007227
      dxy     :     0.010975

 43 N s       :     3.558452  s :     3.558452
      pz      :     1.262669  p :     3.838266
      px      :     1.285285
      py      :     1.290312
      dz2     :     0.010734  d :     0.047558
      dxz     :     0.008062
      dyz     :     0.009954
      dx2y2   :     0.009361
      dxy     :     0.009447

 44 C s       :     3.118418  s :     3.118418
      pz      :     0.944734  p :     2.625906
      px      :     0.776794
      py      :     0.904378
      dz2     :     0.009178  d :     0.046584
      dxz     :     0.007918
      dyz     :     0.007577
      dx2y2   :     0.010819
      dxy     :     0.011092

 45 C s       :     3.174570  s :     3.174570
      pz      :     0.960766  p :     2.973119
      px      :     0.996368
      py      :     1.015984
      dz2     :     0.009000  d :     0.036327
      dxz     :     0.006457
      dyz     :     0.006952
      dx2y2   :     0.005476
      dxy     :     0.008441

 46 C s       :     3.161968  s :     3.161968
      pz      :     1.018259  p :     2.995215
      px      :     0.978024
      py      :     0.998933
      dz2     :     0.006341  d :     0.034746
      dxz     :     0.007837
      dyz     :     0.007071
      dx2y2   :     0.007607
      dxy     :     0.005890

 47 C s       :     3.069615  s :     3.069615
      pz      :     0.856744  p :     2.828052
      px      :     0.968303
      py      :     1.003005
      dz2     :     0.014772  d :     0.051647
      dxz     :     0.011362
      dyz     :     0.008181
      dx2y2   :     0.006980
      dxy     :     0.010352

 48 H s       :     0.850361  s :     0.850361
      pz      :     0.001989  p :     0.011078
      px      :     0.004526
      py      :     0.004564

 49 H s       :     0.856219  s :     0.856219
      pz      :     0.002551  p :     0.011238
      px      :     0.006038
      py      :     0.002650

 50 H s       :     0.836019  s :     0.836019
      pz      :     0.006722  p :     0.011148
      px      :     0.002329
      py      :     0.002097

 51 H s       :     0.873994  s :     0.873994
      pz      :     0.002207  p :     0.012848
      px      :     0.005240
      py      :     0.005401

 52 H s       :     0.876401  s :     0.876401
      pz      :     0.006330  p :     0.012839
      px      :     0.002666
      py      :     0.003843

 53 H s       :     0.862742  s :     0.862742
      pz      :     0.002639  p :     0.012625
      px      :     0.006464
      py      :     0.003522



                     *******************************
                     * LOEWDIN POPULATION ANALYSIS *
                     *******************************

----------------------
LOEWDIN ATOMIC CHARGES
----------------------
   0 H :    0.078401
   1 C :   -0.081428
   2 C :   -0.065125
   3 C :   -0.086790
   4 C :   -0.035270
   5 H :    0.081660
   6 C :   -0.094256
   7 H :    0.077624
   8 C :    0.021733
   9 H :    0.076739
  10 B :   -0.180840
  11 H :    0.068513
  12 H :    0.071337
  13 H :    0.071531
  14 H :    0.069368
  15 H :    0.074220
  16 H :    0.065562
  17 N :   -0.136845
  18 C :   -0.200145
  19 H :    0.080933
  20 H :    0.077712
  21 H :    0.073514
  22 C :   -0.214740
  23 C :    0.033958
  24 C :    0.033671
  25 C :   -0.124166
  26 C :   -0.124006
  27 C :   -0.135426
  28 H :    0.076100
  29 H :    0.066711
  30 H :    0.074200
  31 C :   -0.215059
  32 H :    0.074451
  33 H :    0.075664
  34 H :    0.066682
  35 C :   -0.201018
  36 H :    0.079864
  37 H :    0.074396
  38 H :    0.078178
  39 H :   -0.003568
  40 H :    0.117580
  41 H :    0.052446
  42 C :   -0.112081
  43 N :    0.026730
  44 C :   -0.059712
  45 C :   -0.105503
  46 C :   -0.149514
  47 C :   -0.064806
  48 H :    0.077948
  49 H :    0.082579
  50 H :    0.085570
  51 H :    0.076494
  52 H :    0.074767
  53 H :    0.073462

-------------------------------
LOEWDIN REDUCED ORBITAL CHARGES
-------------------------------
  0 H s       :     0.881543  s :     0.881543
      pz      :     0.008575  p :     0.040056
      px      :     0.009689
      py      :     0.021792

  1 C s       :     2.893024  s :     2.893024
      pz      :     0.979642  p :     3.102713
      px      :     1.066303
      py      :     1.056767
      dz2     :     0.005584  d :     0.085691
      dxz     :     0.013635
      dyz     :     0.006659
      dx2y2   :     0.029591
      dxy     :     0.030222

  2 C s       :     2.888403  s :     2.888403
      pz      :     0.982057  p :     3.091009
      px      :     1.060759
      py      :     1.048193
      dz2     :     0.006368  d :     0.085713
      dxz     :     0.005067
      dyz     :     0.013699
      dx2y2   :     0.033518
      dxy     :     0.027061

  3 C s       :     2.892203  s :     2.892203
      pz      :     0.988526  p :     3.109123
      px      :     1.065055
      py      :     1.055541
      dz2     :     0.005864  d :     0.085465
      dxz     :     0.012188
      dyz     :     0.008020
      dx2y2   :     0.027370
      dxy     :     0.032024

  4 C s       :     2.886689  s :     2.886689
      pz      :     0.928437  p :     3.069443
      px      :     1.059792
      py      :     1.081214
      dz2     :     0.006227  d :     0.079138
      dxz     :     0.012277
      dyz     :     0.009147
      dx2y2   :     0.026910
      dxy     :     0.024576

  5 H s       :     0.877883  s :     0.877883
      pz      :     0.007594  p :     0.040457
      px      :     0.026822
      py      :     0.006041

  6 C s       :     2.897394  s :     2.897394
      pz      :     0.996306  p :     3.112655
      px      :     1.056711
      py      :     1.059638
      dz2     :     0.006986  d :     0.084208
      dxz     :     0.005170
      dyz     :     0.014870
      dx2y2   :     0.031075
      dxy     :     0.026106

  7 H s       :     0.882262  s :     0.882262
      pz      :     0.008507  p :     0.040114
      px      :     0.012940
      py      :     0.018666

  8 C s       :     2.852620  s :     2.852620
      pz      :     0.977718  p :     2.987238
      px      :     1.043668
      py      :     0.965852
      dz2     :     0.008733  d :     0.138409
      dxz     :     0.015602
      dyz     :     0.015497
      dx2y2   :     0.049137
      dxy     :     0.049441

  9 H s       :     0.881463  s :     0.881463
      pz      :     0.008362  p :     0.041798
      px      :     0.027041
      py      :     0.006395

 10 B s       :     2.786724  s :     2.786724
      pz      :     0.884626  p :     2.270980
      px      :     0.739173
      py      :     0.647180
      dz2     :     0.025731  d :     0.123136
      dxz     :     0.029200
      dyz     :     0.021835
      dx2y2   :     0.013165
      dxy     :     0.033205

 11 H s       :     0.892778  s :     0.892778
      pz      :     0.006939  p :     0.038709
      px      :     0.021558
      py      :     0.010212

 12 H s       :     0.889823  s :     0.889823
      pz      :     0.016383  p :     0.038840
      px      :     0.011044
      py      :     0.011413

 13 H s       :     0.889608  s :     0.889608
      pz      :     0.020974  p :     0.038862
      px      :     0.010967
      py      :     0.006921

 14 H s       :     0.891843  s :     0.891843
      pz      :     0.007080  p :     0.038788
      px      :     0.021713
      py      :     0.009996

 15 H s       :     0.887028  s :     0.887028
      pz      :     0.008198  p :     0.038752
      px      :     0.007071
      py      :     0.023483

 16 H s       :     0.895466  s :     0.895466
      pz      :     0.007158  p :     0.038972
      px      :     0.022503
      py      :     0.009311

 17 N s       :     3.120934  s :     3.120934
      pz      :     1.145126  p :     3.930369
      px      :     1.492205
      py      :     1.293038
      dz2     :     0.021581  d :     0.085542
      dxz     :     0.018937
      dyz     :     0.021050
      dx2y2   :     0.012459
      dxy     :     0.011516

 18 C s       :     2.913970  s :     2.913970
      pz      :     1.055738  p :     3.223618
      px      :     1.066072
      py      :     1.101808
      dz2     :     0.008552  d :     0.062556
      dxz     :     0.016188
      dyz     :     0.015390
      dx2y2   :     0.014559
      dxy     :     0.007869

 19 H s       :     0.878593  s :     0.878593
      pz      :     0.009933  p :     0.040474
      px      :     0.007204
      py      :     0.023337

 20 H s       :     0.882050  s :     0.882050
      pz      :     0.008154  p :     0.040238
      px      :     0.022924
[...]
freq.    3082.11  E(vib)   ...       0.00 
freq.    3083.57  E(vib)   ...       0.00 
freq.    3088.19  E(vib)   ...       0.00 
freq.    3092.10  E(vib)   ...       0.00 
freq.    3116.60  E(vib)   ...       0.00 
freq.    3118.29  E(vib)   ...       0.00 
freq.    3126.43  E(vib)   ...       0.00 
freq.    3156.41  E(vib)   ...       0.00 
freq.    3161.57  E(vib)   ...       0.00 
freq.    3163.57  E(vib)   ...       0.00 
freq.    3166.97  E(vib)   ...       0.00 
freq.    3169.26  E(vib)   ...       0.00 
freq.    3180.03  E(vib)   ...       0.00 
freq.    3183.77  E(vib)   ...       0.00 
freq.    3185.49  E(vib)   ...       0.00 
freq.    3189.93  E(vib)   ...       0.00 
freq.    3200.84  E(vib)   ...       0.00 
freq.    3205.79  E(vib)   ...       0.00 
freq.    3215.43  E(vib)   ...       0.00 
freq.    3232.15  E(vib)   ...       0.00 
freq.    3255.70  E(vib)   ...       0.00 
freq.    3270.81  E(vib)   ...       0.00 
freq.    3278.65  E(vib)   ...       0.00 
freq.    3298.65  E(vib)   ...       0.00 
freq.    3622.43  E(vib)   ...       0.00 

------------
INNER ENERGY
------------

The inner energy is: U= E(el) + E(ZPE) + E(vib) + E(rot) + E(trans)
    E(el)   - is the total energy from the electronic structure calculation
              = E(kin-el) + E(nuc-el) + E(el-el) + E(nuc-nuc)
    E(ZPE)  - the the zero temperature vibrational energy from the frequency calculation
    E(vib)  - the the finite temperature correction to E(ZPE) due to population
              of excited vibrational states
    E(rot)  - is the rotational thermal energy
    E(trans)- is the translational thermal energy

Summary of contributions to the inner energy U:
Electronic energy                ...   -914.92107942 Eh
Zero point energy                ...      0.47722522 Eh     299.46 kcal/mol
Thermal vibrational correction   ...      0.01973489 Eh      12.38 kcal/mol
Thermal rotational correction    ...      0.00141627 Eh       0.89 kcal/mol
Thermal translational correction ...      0.00141627 Eh       0.89 kcal/mol
-----------------------------------------------------------------------
Total thermal energy                   -914.42128677 Eh


Summary of corrections to the electronic energy:
(perhaps to be used in another calculation)
Total thermal correction                  0.02256744 Eh      14.16 kcal/mol
Non-thermal (ZPE) correction              0.47722522 Eh     299.46 kcal/mol
-----------------------------------------------------------------------
Total correction                          0.49979266 Eh     313.62 kcal/mol


--------
ENTHALPY
--------

The enthalpy is H = U + kB*T
                kB is Boltzmann's constant
Total thermal energy              ...   -914.42128677 Eh 
Thermal Enthalpy correction       ...      0.00094421 Eh       0.59 kcal/mol
-----------------------------------------------------------------------
Total Enthalpy                    ...   -914.42034256 Eh


Note: Only C1 symmetry has been detected, increase convergence thresholds 
      if your molecule has a higher symmetry. Symmetry factor of 1.0 is   
      used for the rotational entropy correction. 
 

Note: Rotational entropy computed according to Herzberg 
Infrared and Raman Spectra, Chapter V,1, Van Nostrand Reinhold, 1945 
Point Group:  C1, Symmetry Number:   1  
Rotational constants in cm-1:     0.012375     0.006491     0.005619 

Vibrational entropy computed according to the QRRHO of S. Grimme
Chem.Eur.J. 2012 18 9955 using a reference frequency of 100.0 cm-1


-------
ENTROPY
-------

The entropy contributions are T*S = T*(S(el)+S(vib)+S(rot)+S(trans))
     S(el)   - electronic entropy
     S(vib)  - vibrational entropy
     S(rot)  - rotational entropy
     S(trans)- translational entropy
The entropies will be listed as multiplied by the temperature to get
units of energy

Electronic entropy                ...      0.00000000 Eh      0.00 kcal/mol
Vibrational entropy               ...      0.03363239 Eh     21.10 kcal/mol
Rotational entropy                ...      0.01640850 Eh     10.30 kcal/mol
Translational entropy             ...      0.02047495 Eh     12.85 kcal/mol
-----------------------------------------------------------------------
Final entropy term                ...      0.07051584 Eh     44.25 kcal/mol

In case the symmetry of your molecule has not been determined correctly
or in case you have a reason to use a different symmetry number we print 
out the resulting rotational entropy values for sn=1,12:

 non-linear molecules -----------------------------------
|  sn= 1 | S(rot)=       0.01640850 Eh     10.30 kcal/mol|
|  sn= 2 | S(rot)=       0.01575404 Eh      9.89 kcal/mol|
|  sn= 3 | S(rot)=       0.01537121 Eh      9.65 kcal/mol|
|  sn= 4 | S(rot)=       0.01509959 Eh      9.48 kcal/mol|
|  sn= 5 | S(rot)=       0.01488890 Eh      9.34 kcal/mol|
|  sn= 6 | S(rot)=       0.01471675 Eh      9.23 kcal/mol|
|  sn= 7 | S(rot)=       0.01457121 Eh      9.14 kcal/mol|
|  sn= 8 | S(rot)=       0.01444513 Eh      9.06 kcal/mol|
|  sn= 9 | S(rot)=       0.01433392 Eh      8.99 kcal/mol|
|  sn=10 | S(rot)=       0.01423444 Eh      8.93 kcal/mol|
|  sn=11 | S(rot)=       0.01414445 Eh      8.88 kcal/mol|
|  sn=12 | S(rot)=       0.01406230 Eh      8.82 kcal/mol|
 linear molecules ---------------------------------------
|  Dinfh | S(rot)=       0.01021813 Eh      6.41 kcal/mol|
|  Cinfv | S(rot)=       0.01087259 Eh      6.82 kcal/mol|
 --------------------------------------------------------


-------------------
GIBBS FREE ENERGY
-------------------

The Gibbs free energy is G = H - T*S

Total enthalpy                    ...   -914.42034256 Eh 
Total entropy correction          ...     -0.07051584 Eh    -44.25 kcal/mol
-----------------------------------------------------------------------
Final Gibbs free energy         ...   -914.49085840 Eh

For completeness - the Gibbs free energy minus the electronic energy
G-E(el)                           ...      0.43022103 Eh    269.97 kcal/mol


Maximum memory used throughout the entire PROP-calculation: 386.9 MB



--------------------------------------------------------------------------------
                   Intrinsic Reaction Coordinate Calculation
--------------------------------------------------------------------------------

System:
Nr. of atoms                        .... 54
Algorithm: SD (steepest descent step) plus correction
Settings:
Max. no of cycles        MaxIter    .... 40
Direction                           .... Forward and backward
Initial displacement Hessian type   .... Read
Hessian Filename                    .... input.hess
Following Hessian mode              .... 0
Initial displacement type           .... Energy
  Initial displacement energy change.... 2.000 mEh
Coordinate system following type    .... Cartesian
Length of steepest descent step     .... 0.150 bohr
Do parabolic fit 
  if SD step is uphill              .... YES
Do Correction to SD step            .... YES
Scaling for length of correction
  compared to SD step               .... 0.333
Do parabolic fit to SD correction   .... YES
Only interpolate for parabolic fit  .... YES
Do update to length of
  SD step and correction            .... YES
Convergence Tolerances:
  Max. Gradient            TolMAXG  ....  2.0000e-03 Eh/bohr
  RMS Gradient             TolRMSG  ....  5.0000e-04 Eh/bohr
Storing full IRC trajectory in      .... input_IRC_Full_trj.xyz
Storing forward trajectory in       .... input_IRC_F_trj.xyz
Storing backward trajectory in      .... input_IRC_B_trj.xyz


 ...good, the file input.hess exists
Reading the hessian file           ...... done
Determining length of initial displacement:
  Requested energy change (quadratic behavior): 2.000 mEh
  Resulting scaling factor for initial displacement along normalized TS mode: 0.8433

         *************************************************************
         *                          FORWARD IRC                      *
         *************************************************************

Iteration    E(Eh)      dE(kcal/mol)  max(|G|)   RMS(G) 
Convergence thresholds                0.002000  0.000500            
    0      -914.922657   -0.989726    0.008062  0.001186
    1      -914.922816   -1.089595    0.004825  0.000658
    2      -914.922894   -1.138825    0.003492  0.000428
    3      -914.922951   -1.174732    0.002829  0.000360
    4      -914.923020   -1.217489    0.002732  0.000311
    5      -914.923093   -1.263378    0.002747  0.000309
    6      -914.923165   -1.308784    0.002694  0.000308
    7      -914.923237   -1.354161    0.002700  0.000308
    8      -914.923310   -1.399572    0.002683  0.000308
    9      -914.923383   -1.445206    0.002681  0.000308
   10      -914.923455   -1.490925    0.002669  0.000308
   11      -914.923528   -1.536668    0.002658  0.000307
   12      -914.923601   -1.582173    0.002637  0.000305
   13      -914.923673   -1.627419    0.002610  0.000302
   14      -914.923744   -1.672264    0.002574  0.000299
   15      -914.923815   -1.716622    0.002542  0.000296
   16      -914.923885   -1.760670    0.002498  0.000295
   17      -914.923954   -1.803935    0.002480  0.000292
   18      -914.924023   -1.847173    0.002451  0.000290
   19      -914.924092   -1.890328    0.002445  0.000291
   20      -914.924161   -1.933614    0.002436  0.000292
   21      -914.924230   -1.976967    0.002439  0.000293
   22      -914.924299   -2.020533    0.002437  0.000294
   23      -914.924369   -2.064132    0.002434  0.000294
   24      -914.924438   -2.107783    0.002425  0.000293
   25      -914.924508   -2.151280    0.002416  0.000293
   26      -914.924577   -2.194750    0.002406  0.000292
   27      -914.924646   -2.238003    0.002404  0.000291
   28      -914.924715   -2.281122    0.002398  0.000290
   29      -914.924783   -2.324182    0.002402  0.000290
   30      -914.924852   -2.367264    0.002404  0.000290
   31      -914.924920   -2.410294    0.002408  0.000290
   32      -914.924989   -2.453291    0.002408  0.000290
   33      -914.925057   -2.496272    0.002407  0.000289
   34      -914.925126   -2.539158    0.002402  0.000289
   35      -914.925194   -2.581950    0.002394  0.000288
   36      -914.925262   -2.624646    0.002384  0.000287
   37      -914.925330   -2.667168    0.002371  0.000286
   38      -914.925397   -2.709521    0.002356  0.000284
   39      -914.925464   -2.751667    0.002338  0.000283

         *************************************************************
         *  MAXIMUM NUMBER OF ITERATIONS REACHED - STOPPING IRC RUN  *
         *************************************************************


         *************************************************************
         *                          BACKWARD IRC                     *
         *************************************************************

Iteration    E(Eh)      dE(kcal/mol)  max(|G|)   RMS(G) 
Convergence thresholds                0.002000  0.000500            
    0      -914.918899    1.368344    0.018439  0.002056
    1      -914.920568    0.321034    0.005719  0.000959
    2      -914.920740    0.212903    0.004159  0.000772
    3      -914.920860    0.137710    0.003597  0.000609
    4      -914.921075    0.002708    0.003017  0.000444
    5      -914.921288   -0.130747    0.002602  0.000384
    6      -914.921433   -0.222070    0.001721  0.000309

                      ***********************HURRAY********************
                      ***            THE IRC HAS CONVERGED          ***
                      *************************************************


---------------------------------------------------------------
                       IRC PATH SUMMARY              
---------------------------------------------------------------
All gradients are in Eh/Bohr.

Step        E(Eh)      dE(kcal/mol)  max(|G|)   RMS(G) 
   1      -914.921433   -0.222070    0.001721  0.000309
   2      -914.921288   -0.130747    0.002602  0.000384
   3      -914.921075    0.002708    0.003017  0.000444
   4      -914.920860    0.137710    0.003597  0.000609
   5      -914.920740    0.212903    0.004159  0.000772
   6      -914.920568    0.321034    0.005719  0.000959
   7      -914.918899    1.368344    0.018439  0.002056
   8      -914.921079    0.000000    0.000131  0.000015 <= TS
   9      -914.922657   -0.989726    0.008062  0.001186
  10      -914.922816   -1.089595    0.004825  0.000658
  11      -914.922894   -1.138825    0.003492  0.000428
  12      -914.922951   -1.174732    0.002829  0.000360
  13      -914.923020   -1.217489    0.002732  0.000311
  14      -914.923093   -1.263378    0.002747  0.000309
  15      -914.923165   -1.308784    0.002694  0.000308
  16      -914.923237   -1.354161    0.002700  0.000308
  17      -914.923310   -1.399572    0.002683  0.000308
  18      -914.923383   -1.445206    0.002681  0.000308
  19      -914.923455   -1.490925    0.002669  0.000308
  20      -914.923528   -1.536668    0.002658  0.000307
  21      -914.923601   -1.582173    0.002637  0.000305
  22      -914.923673   -1.627419    0.002610  0.000302
  23      -914.923744   -1.672264    0.002574  0.000299
  24      -914.923815   -1.716622    0.002542  0.000296
  25      -914.923885   -1.760670    0.002498  0.000295
  26      -914.923954   -1.803935    0.002480  0.000292
  27      -914.924023   -1.847173    0.002451  0.000290
  28      -914.924092   -1.890328    0.002445  0.000291
  29      -914.924161   -1.933614    0.002436  0.000292
  30      -914.924230   -1.976967    0.002439  0.000293
  31      -914.924299   -2.020533    0.002437  0.000294
  32      -914.924369   -2.064132    0.002434  0.000294
  33      -914.924438   -2.107783    0.002425  0.000293
  34      -914.924508   -2.151280    0.002416  0.000293
  35      -914.924577   -2.194750    0.002406  0.000292
  36      -914.924646   -2.238003    0.002404  0.000291
  37      -914.924715   -2.281122    0.002398  0.000290
  38      -914.924783   -2.324182    0.002402  0.000290
  39      -914.924852   -2.367264    0.002404  0.000290
  40      -914.924920   -2.410294    0.002408  0.000290
  41      -914.924989   -2.453291    0.002408  0.000290
  42      -914.925057   -2.496272    0.002407  0.000289
  43      -914.925126   -2.539158    0.002402  0.000289
  44      -914.925194   -2.581950    0.002394  0.000288
  45      -914.925262   -2.624646    0.002384  0.000287
  46      -914.925330   -2.667168    0.002371  0.000286
  47      -914.925397   -2.709521    0.002356  0.000284
  48      -914.925464   -2.751667    0.002338  0.000283

--------------------------------
SUGGESTED CITATIONS FOR THIS RUN
--------------------------------

Below you find a list of papers that are relevant to this ORCA run
We neither can nor want to force you to cite these papers, but we appreciate if you do
You receive ORCA, which is the product of decades of hard work by many enthusiastic individuals, for free
The only thing we kindly ask in return is that you cite our papers,
We deeply appreciate it, if you show your appreciation for ORCA by not just citing the generic ORCA reference.

Please note that relegating all ORCA citations to the supporting information does *not* help us.
SI sections are not indexed - citations you put there will not count into any citation statistics
But we need these citations in order to attract the funding resources that allow us to do what we are doing

Therefore, if you are a happy ORCA user, please consider citing a few of the papers listed below in the main body of your paper

In addition to the list printed below, the program has created the file input.bibtex that contains the list in bibtex format
You can import this file easily into all common literature databanks and citation aid programs


List of essential papers. We consider these as the minimum necessary citations

  1. Neese,F.
     Software update: the ORCA program system, version 5.0
     WIRES Comput. Molec. Sci., 2022 12(1)e1606
     doi.org/10.1002/wcms.1606

List of papers to cite with high priority. The work reported in these papers was absolutely
necessary for this run to complete.
Our perspective: the developers of density functionals and basis sets usually get cited in chemistry papers
Good! But without the algorithms to do something with them, the functionals or basis sets would not do anything.
Hence, in our opinion, the algorithm design and method developments papers are equally worthy of getting cited

  1. Neese,F.
     An improvement of the resolution of the identity approximation for the formation of the Coulomb matrix
     J. Comp. Chem., 2003 24(14)1740-1747
     doi.org/10.1002/jcc.10318
  2. Neese,F.; Wennmohs,F.; Hansen,A.; Becker,U.
     Efficient, approximate and parallel Hartree-Fock and hybrid DFT calculations. A 'chain-of-spheres' algorithm for the Hartree-Fock exchange
     Chem. Phys., 2009 356(1-3)98-109
     doi.org/10.1016/j.chemphys.2008.10.036
  3. Bykov,D.; Petrenko,T.; Izsak,R.; Kossmann,S.; Becker,U.; Valeev,E.; Neese,F.
     Efficient implementation of the analytic second derivatives of Hartree-Fock and hybrid DFT energies: a detailed analysis of different approximations
     Molec. Phys., 2015 113 1961-1977
     doi.org/10.1080/00268976.2015.1025114
  4. Helmich-Paris,B.; de Souza,B.; Neese,F.; Izsák,R.
     An improved chain of spheres for exchange algorithm
     J. Chem. Phys., 2021 155 104109
     doi.org/doi: 10.1063/5.0058766.
  5. Neese,F.
     The SHARK Integral Generation and Digestion System
     J. Comp. Chem., 2022  1-16
     doi.org/10.1002/jcc.26942
  6. Grimme,S.; Antony,J.; Ehrlich,S.; Krieg,H.
     A consistent and accurate ab initio parametrization of density functional dispersion correction (DFT-D) for the 94 elements H-Pu
     J. Chem. Phys., 2010 132 154104
     doi.org/10.1063/1.3382344

List of suggested additional citations. These are papers that are important in the 'surrounding' of 
of this run, or papers that preceded the highly important papers. If you like your results we are grateful for a citation.

  1. Izsak,R.; Neese,F.
     An overlap fitted chain of spheres exchange method
     J. Chem. Phys., 2011 135 144105
     doi.org/10.1063/1.3646921
  2. Izsak,R.; Hansen,A.; Neese,F.
     The resolution of identity and chain of spheres approximations for the LPNO-CCSD singles Fock term
     Molec. Phys., 2012 110 2413-2417
     doi.org/10.1080/00268976.2012.687466
  3. Neese,F.
     The ORCA program system
     WIRES Comput. Molec. Sci., 2012 2(1)73-78
     doi.org/10.1002/wcms.81
  4. Izsak,R.; Neese,F.; Klopper,W.
     Robust fitting techniques in the chain of spheres approximation to the Fock exchange: The role of the complementary space
     J. Chem. Phys., 2013 139 
     doi.org/10.1063/1.4819264
  5. Neese,F.
     Software update: the ORCA program system, version 4.0
     WIRES Comput. Molec. Sci., 2018 8(1)1-6
     doi.org/10.1002/wcms.1327
  6. Neese,F.; Wennmohs,F.; Becker,U.; Riplinger,C.
     The ORCA quantum chemistry program package
     J. Chem. Phys., 2020 152 Art. No. L224108
     doi.org/10.1063/5.0004608

List of optional additional citations

  1. Neese,F.
     Approximate second-order SCF convergence for spin unrestricted wavefunctions
     Chem. Phys. Lett., 2000 325(1-3)93-98
     doi.org/10.1016/s0009-2614(00)00662-x

Timings for individual modules:

Sum of individual times          ...     8822.706 sec (= 147.045 min)
Startup calculation              ...      764.285 sec (=  12.738 min)   8.7 %
SCF iterations                   ...     5952.119 sec (=  99.202 min)  67.5 %
Property integrals               ...      235.720 sec (=   3.929 min)   2.7 %
SCF Response                     ...      219.160 sec (=   3.653 min)   2.5 %
Property calculations            ...      218.050 sec (=   3.634 min)   2.5 %
SCF Gradient evaluation          ...     1433.373 sec (=  23.890 min)  16.2 %
                             ****ORCA TERMINATED NORMALLY****
TOTAL RUN TIME: 0 days 2 hours 37 minutes 47 seconds 735 msec
