
                                 *****************
                                 * O   R   C   A *
                                 *****************

                                            #,                                       
                                            ###                                      
                                            ####                                     
                                            #####                                    
                                            ######                                   
                                           ########,                                 
                                     ,,################,,,,,                         
                               ,,#################################,,                 
                          ,,##########################################,,             
                       ,#########################################, ''#####,          
                    ,#############################################,,   '####,        
                  ,##################################################,,,,####,       
                ,###########''''           ''''###############################       
              ,#####''   ,,,,##########,,,,          '''####'''          '####       
            ,##' ,,,,###########################,,,                        '##       
           ' ,,###''''                  '''############,,,                           
         ,,##''                                '''############,,,,        ,,,,,,###''
      ,#''                                            '''#######################'''  
     '                                                          ''''####''''         
             ,#######,   #######,   ,#######,      ##                                
            ,#'     '#,  ##    ##  ,#'     '#,    #''#        ,####,    ,#,          
            ##       ##  ##   ,#'  ##            #'  '#       #'       ,# #          
            ##       ##  #######   ##           ,######,      #####,      #          
            '#,     ,#'  ##    ##  '#,     ,#' ,#      #,     #,   #      #          
             '#######'   ##     ##  '#######'  #'      '#     '####' #    #          



                #########################################################
                #                        -***-                          #
                #          Department of theory and spectroscopy        #
                #                                                       #
                #                      Frank Neese                      #
                #                                                       #
                #     Directorship, Architecture, Infrastructure        #
                #                    SHARK, DRIVERS                     #
                #        Core code/Algorithms in most modules           #
                #                                                       #
                #        Max Planck Institute fuer Kohlenforschung      #
                #                Kaiser Wilhelm Platz 1                 #
                #                 D-45470 Muelheim/Ruhr                 #
                #                      Germany                          #
                #                                                       #
                #                  All rights reserved                  #
                #                        -***-                          #
                #########################################################


                         Program Version 6.1.0  -  RELEASE   -
                                (GIT: $679e74b$)
                          ($2025-06-10 18:02:51 +0200$)


 With contributions from (in alphabetic order):
[Max-Planck-Institut fuer Kohlenforschung]                               
  Daniel Aravena         : Magnetic Suceptibility                        
  Michael Atanasov       : Ab Initio Ligand Field Theory (pilot matlab implementation)
  Alexander A. Auer      : GIAO ZORA, VPT2 properties, NMR spectrum      
  Ute Becker             : All parallelization in ORCA, NUMFREQ, NUMCALC 
  Giovanni Bistoni       : ED, misc. LED, open-shell LED, HFLD           
  Dmytro Bykov           : pre 5.0 version of the SCF Hessian            
  Marcos Casanova-Páez   : Triplet and SCS-CIS(D). UHF-(DLPNO)-IP/EA/STEOM-CCSD. UHF-CVS-IP/STEOM-CCSD   
  Vijay G. Chilkuri      : MRCI spin determinant printing, contributions to CSF-ICE 
  Pauline Colinet        : FMM embedding                                 
  Dipayan Datta          : RHF DLPNO-CCSD density                        
  Achintya Kumar Dutta   : EOM-CC, STEOM-CC                              
  Nicolas Foglia         : Exact transition moments, OPA infrastructure, MCD improvements    
  Dmitry Ganyushin       : Spin-Orbit,Spin-Spin,Magnetic field MRCI      
  Miquel Garcia-Rates    : C-PCM and meta-GGA Hessian, CCSD/C-PCM, Gaussian charge scheme 
  Tiago L. C. Gouveia    : GS-ROHF, GS-ROCIS                             
  Yang Guo               : DLPNO-NEVPT2, F12-NEVPT2, CIM, IAO-localization        
  Andreas Hansen         : Spin unrestricted coupled pair/coupled cluster methods 
  Ingolf Harden          : AUTO-CI MPn and infrastructure                
  Benjamin Helmich-Paris : MC-RPA, TRAH-(SCF,CASSCF), AVAS, COSX integrals, SCF dyn. polar., MC-PDFT, srDFT 
  Lee Huntington         : MR-EOM, pCC                                   
  Robert Izsak           : Overlap fitted RIJCOSX, COSX-SCS-MP3, EOM     
  Riya Kayal             : Wick's Theorem for AUTO-CI, AUTO-CI UHF-CCSDT 
  Emily Kempfer          : AUTO-CI RHF CISDT and CCSDT, approximate NEVPT4
  Christian Kollmar      : KDIIS, OOCD, Brueckner-CCSD(T), CCSD density, CASPT2, CASPT2-K, improved NEVPT2 
  Axel Koslowski         : Symmetry handling                             
  Simone Kossmann        : meta-GGA functionals, TD-DFT gradient, OOMP2, (MP2 Hessian; deprecated post 5.0) 
  Lucas Lang             : DCDCAS, Hyperfine gauge corrections, ICE-SOC+SSC
  Marvin Lechner         : AUTO-CI (C++ implementation), FIC-MRCC        
  Spencer Leger          : CASSCF response                               
  Dagmar Lenk            : GEPOL surface, SMD, ORCA-2-JSON               
  Dimitrios Liakos       : Extrapolation schemes; Compound Job, Property file
  Dimitrios Manganas     : Further ROCIS development; embedding schemes. LFT, Crystal Embedding 
  Dimitrios Pantazis     : SARC Basis sets                               
  Anastasios Papadopoulos: AUTO-CI, single reference methods and gradients 
  Taras Petrenko         : pre 6.0 DFT Hessian and TD-DFT gradient,  ECA, NRVS 
  Petra Pikulova         : Analytic Raman intensities                    
  Peter Pinski           : DLPNO-MP2, DLPNO-MP2 Gradient                 
  Shashank Vittal Rao    : ES-AILFT, MagRelax                            
  Christoph Reimann      : Effective Core Potentials                     
  Marius Retegan         : Local ZFS, SOC                                
  Christoph Riplinger    : Optimizer, TS searches, QM/MM, DLPNO-CCSD(T), (RO)-DLPNO pert. Triples 
  Michael Roemelt        : Original ROCIS implementation, recursive CI coupling coefficients
  Masaaki Saitow         : Open-shell DLPNO-CCSD energy and density      
  Barbara Sandhoefer     : DKH picture change effects                    
  Yorick L. A. Schmerwitz: GMF and freeze-and-release deltaSCF, NEB S-IDPP initial path                    
  Kantharuban Sivalingam : CASSCF convergence/infrastructure, NEVPT2, NEVPT3, NEVPT4(SD), FIC-MRCI and CEPA variants
  Bernardo de Souza      : ESD, SOC TD-DFT                               
  Georgi L. Stoychev     : AutoAux, RI-MP2 NMR, DLPNO-MP2 response, X2C  
  Van Anh Tran           : RI-MP2 g-tensors                              
  Willem Van den Heuvel  : Paramagnetic NMR                              
  Zikuan Wang            : NOTCH, Electric field optimization            
  Frank Wennmohs         : Technical directorship and infrastructure     
  Hang Xu                : AUTO-CI-Response properties                   
                                                                         
[FACCTs GmbH]                                                            
  Markus Bursch, Nicolas Foglia, Miquel Garcia-Rates, Ingolf Harden, Hagen Neugebauer, Anastasios Papadopoulos, 
  Christoph Riplinger, Bernardo de Souza, Georgi L. Stoychev                                                    
                                                                 
  APM, various basis sets, CI-OPT, improved COSX, DLPNO-Multilevel,           
  DOCKER, DRACO, updates on ESD, Fragmentator, GOAT, IRC, LR-CPCM, L-BFGS, MBIS, meta-GGA TD-DFT gradient, ML-optimized integration grids, 
  MM, NACMEs, nearIR, NEB, NEB-TS, NL-DFT gradient (VV10), 2- and 3-layer-ONIOM, interface openCOSMO-RS, QMMM,   
  Crystal-QMMM, RESP, rigid body optimization, SF, symmetry and pop. for TD-DFT, various functionals, SOLVATOR                                   
                                                                         
[Other institutions]                                                     
  V. Asgeirsson          : NEB                                           
  Christoph Bannwarth    : sTDA-DFT, sTD-DFT, PBEh-3c, B97-3c, D3        
  Giovanni Bistoni       : ETS/NOCV, ADLD/ADEX, COVALED                  
  Martin Brehm           : Molecular dynamics                            
  Ronald Cardenas        : ETS/NOCV                                      
  Martina Colucci        : COVALED                                       
  Sebastian Ehlert       : rSCAN, r2SCAN, r2SCAN-3c, D4, dhf basis sets  
  Marvin Friede          : D4 for Fr, Ra, Ac-Lr                          
  Lars Goerigk           : TD-DFT with DH, B97 family of functionals     
  Stefan Grimme          : VdW corrections, initial TS optimization, DFT functionals, gCP, sTDA/sTD-DF 
  Waldemar Hujo          : DFT-NL                                        
  H. Jonsson             : NEB                                           
  Holger Kruse           : gCP                                           
  Marcel Mueller         : wB97X-3c, vDZP basis set                      
  Hagen Neugebauer       : wr2SCAN, Native XTB                           
  Gianluca Regni         : ADLD/ADEX                                     
  Tobias Risthaus        : pre 6.0 range-separated hybrid DFT and stability analysis
  Lukas Wittmann         : regularized MP2, r2SCAN double-hybrids, wr2SCAN        
                                                                         
We gratefully acknowledge several colleagues who have allowed us to      
interface, adapt or use parts of their codes:                            
  Ed Valeev, F. Pavosevic, A. Kumar             : LibInt (2-el integral package), F12 methods 
  Garnet Chan, S. Sharma, J. Yang, R. Olivares  : DMRG                   
  Ulf Ekstrom                                   : XCFun DFT Library      
  Mihaly Kallay                                 : mrcc  (arbitrary order and MRCC methods)
  Frank Weinhold                                : gennbo (NPA and NBO analysis)           
  Simon Mueller                                 : openCOSMO-RS                            
  Christopher J. Cramer and Donald G. Truhlar   : smd solvation model                     
  S Lehtola, MJT Oliveira, MAL Marques          : LibXC Library                           
  Liviu Ungur et al                             : ANISO software                          


 Your calculation uses the libint2 library for the computation of 2-el integrals
 For citations please refer to: http://libint.valeyev.net

 Your ORCA version has been built with support for libXC version: 7.0.0
 For citations please refer to: https://libxc.gitlab.io

 This ORCA versions uses:
   CBLAS   interface :  Fast vector & matrix operations
   LAPACKE interface :  Fast linear algebra routines
   SCALAPACK package :  Parallel linear algebra routines
   Shared memory     :  Shared parallel matrices
   BLAS/LAPACK       :  OpenBLAS 0.3.29  USE64BITINT DYNAMIC_ARCH NO_AFFINITY Haswell SINGLE_THREADED
        Core in use  :  Haswell
   Copyright (c) 2011-2014, The OpenBLAS Project


  ***********************************
  * Starting time: Thu Oct  2 16:14:54 2025
  * Host name:     node318.cluster
  * Process ID:    22701
  * Working dir.:  /scratch/54047657/_e0ifd0
  ***********************************

NOTE: MaxCore=5120 MB was set to SCF,MP2,MDCI,CIPSI,MRCI,RASCI and CIS
      => If you want to overwrite this, your respective input block should be placed after the MaxCore statement
Your calculation utilizes the atom-pairwise dispersion correction
with the zero-damping scheme (D30)


XCFun DFT library Copyright 2009-2010 Ulf Ekstrom and contributors.
See http://admol.org/xcfun for more information.
This is free software; see the source code for copying conditions.
There is ABSOLUTELY NO WARRANTY; not even for MERCHANTABILITY or FITNESS FOR A PARTICULAR PURPOSE.
For details see the documentation.
Scientific users of this library should cite U. Ekstrom, L. Visscher, R. Bast, A. J. Thorvaldsen and K. Ruud;
J.Chem.Theor.Comp. 2010, DOI: 10.1021/ct100117s
XCFun Version 0.99 

Warning: RI is on but no J-basis has been assigned. Assigning Def2/J (nothing to worry about!)
================================================================================

----- Orbital basis set information -----
Your calculation utilizes the basis: 6-31G**
   H-He, Li-Ne : W. J. Hehre, R. Ditchfield and J.A. Pople, J. Chem. Phys. 56, 2257 (1972).
                 Note: He and Ne are unpublished basis sets taken from the Gaussian program.
                 Note: Li and B from J. D. Dill and J. A. Pople, J. Chem. Phys. 62, 2921 (1975).
   Na - Ar     : M. M. Francl, W. J. Pietro, W. J. Hehre, J. S. Binkley, M. S. Gordon, 
                 D. J. DeFrees and J. A. Pople, J. Chem. Phys. 77, 3654 (1982).
   K - Zn      : V. A. Rassolov, J. A. Pople, M. A. Ratner, and T. L. Windus, J. Chem. Phys. 109, 1223 (1998).

----- AuxJ basis set information -----
Your calculation utilizes the auxiliary basis: def2/J
   H-Rn: F. Weigend, Phys. Chem. Chem. Phys. 8, 1057 (2006).
   Fr-Lr: K. Eichkorn, F. Weigend, O. Treutler, R. Ahlrichs; Theor. Chem. Acc. 97, 119 (1997).

================================================================================
                                        WARNINGS
                       Please study these warnings very carefully!
================================================================================


WARNING: Geometry Optimization
  ===> : Switching off AutoStart
         For restart on a previous wavefunction, please use MOREAD

================================================================================
                                       INPUT FILE
================================================================================
NAME = input.inp
|  1> # Automatically generated ORCA input
|  2> 
|  3> # Number of cores
|  4> %pal nprocs 1 end
|  5> # RAM per core
|  6> %maxcore 5120
|  7> 
|  8> ! wB97X-D3 
|  9> ! 6-31G** 
| 10> ! Opt 
| 11> ! NoSym 
| 12> 
| 13> %geom
| 14>     Constraints
| 15>         {B 11 10 C}
| 16>         {B 11 19 C}
| 17>         {B 12 10 C}
| 18>         {B 12 19 C}
| 19>         {B 19 10 C}
| 20>         {B 11 12 C}
| 21>         {A 10 11 19 C}
| 22>         {A 10 12 19 C}
| 23>     end
| 24> end
| 25> %Output
| 26>   JSONPropFile True
| 27> End
| 28> 
| 29> 
| 30> *xyz 0 1 
| 31> C        -1.89914000     -2.30666000      0.19371000
| 32> C        -0.57022000     -1.91307000      0.04808000
| 33> C        -0.16344000     -0.59139000      0.24530000
| 34> C        -1.14925000      0.35810000      0.58873000
| 35> C        -2.48644000     -0.05537000      0.74198000
| 36> C        -2.85343000     -1.36404000      0.54978000
| 37> H        -2.17912000     -3.34493000      0.04544000
| 38> H         0.17903000     -2.66443000     -0.18723000
| 39> H        -3.27123000      0.64445000      0.99437000
| 40> H        -3.88773000     -1.66112000      0.66800000
| 41> B         1.37187000     -0.17509000      0.17727000
| 42> H         2.01474000     -1.23252000     -0.14771000
| 43> C         1.97914000      0.27916000      1.68539000
| 44> C         1.28286000      0.12908000      2.87905000
| 45> C         1.53566000      1.12983000      3.83227000
| 46> H         0.60253000     -0.72219000      3.09559000
| 47> C         2.42714000      2.06488000      3.35972000
| 48> H         1.08801000      1.16890000      4.81690000
| 49> H         2.79238000      2.93939000      3.88215000
| 50> B         2.67390000     -1.19925000      1.06200000
| 51> O         4.04852000     -1.10868000      0.83061000
| 52> O         2.32721000     -2.38892000      1.71466000
| 53> C         4.60075000     -2.38706000      1.18495000
| 54> C         3.55987000     -2.91706000      2.22921000
| 55> C         4.65022000     -3.24246000     -0.08318000
| 56> H         5.21211000     -2.70261000     -0.84930000
| 57> H         5.14165000     -4.20299000      0.09610000
| 58> H         3.64457000     -3.43341000     -0.46870000
| 59> C         6.00269000     -2.17511000      1.73723000
| 60> H         6.66426000     -1.81825000      0.94362000
| 61> H         6.00290000     -1.43267000      2.53667000
| 62> H         6.41074000     -3.11407000      2.12529000
| 63> C         3.77786000     -2.32926000      3.62679000
| 64> H         2.90083000     -2.55041000      4.24077000
| 65> H         4.65844000     -2.76071000      4.11111000
| 66> H         3.89960000     -1.24295000      3.58484000
| 67> C         3.44517000     -4.43206000      2.30445000
| 68> H         4.40309000     -4.87749000      2.59144000
| 69> H         2.70077000     -4.71002000      3.05495000
| 70> H         3.13432000     -4.85303000      1.34698000
| 71> N        -0.92478000      1.81128000      0.72715000
| 72> S         2.95015000      1.72588000      1.77750000
| 73> H         1.77890000      0.59898000     -0.64393000
| 74> C        -1.60458000      2.54901000      1.86020000
| 75> C        -0.70828000      2.61776000     -0.54456000
| 76> C        -2.97195000      3.17813000      1.40377000
| 77> C        -0.68114000      3.68791000      2.38395000
| 78> C        -1.87789000      1.69493000      3.14131000
| 79> C        -3.09421000      3.36292000     -0.11589000
| 80> H        -3.10505000      4.15437000      1.92112000
| 81> H        -3.85931000      2.58773000      1.71600000
| 82> C        -1.75457000      3.78917000     -0.67911000
| 83> C        -0.87849000      1.74270000     -1.82762000
| 84> C         0.69100000      3.28725000     -0.62471000
| 85> H        -1.84721000      4.11223000     -1.73951000
| 86> H        -1.46586000      4.71269000     -0.14428000
| 87> H        -3.89489000      4.10413000     -0.32673000
| 88> H        -3.38893000      2.41181000     -0.60419000
| 89> H        -0.75771000      2.35574000     -2.74705000
| 90> H        -1.88100000      1.26988000     -1.87340000
| 91> H        -0.11857000      0.94572000     -1.90257000
| 92> H         0.77547000      3.88087000     -1.56114000
| 93> H         1.53112000      2.59576000     -0.63316000
| 94> H         0.89480000      3.98211000      0.20420000
| 95> H        -0.50219000      4.51192000      1.68604000
| 96> H         0.29566000      3.28706000      2.68808000
| 97> H        -1.12868000      4.18853000      3.27054000
| 98> H        -2.60371000      0.87460000      3.02774000
| 99> H        -2.31383000      2.32982000      3.94361000
|100> H        -0.96310000      1.25097000      3.54224000
|101> *
|102> 
|103> 
|104>                          ****END OF INPUT****
================================================================================

                       *****************************
                       * Geometry Optimization Run *
                       *****************************

Geometry optimization settings:
Update method            Update   .... BFGS
Choice of coordinates    CoordSys .... (2022) Redundant Internals
Initial Hessian          InHess   .... Almloef's Model
Max. no of cycles        MaxIter  .... 210

Convergence Tolerances:
Energy Change            TolE     ....  5.0000e-06 Eh
Max. Gradient            TolMAXG  ....  3.0000e-04 Eh/bohr
RMS Gradient             TolRMSG  ....  1.0000e-04 Eh/bohr
Max. Displacement        TolMAXD  ....  4.0000e-03 bohr
RMS Displacement         TolRMSD  ....  2.0000e-03 bohr
Strict Convergence                .... False

------------------------------------------------------------------------------
                        ORCA OPTIMIZATION COORDINATE SETUP
------------------------------------------------------------------------------

The optimization will be done in redundant internal coordinates (2022)
Making redundant internal coordinates   ...  (2022 redundants) done
Evaluating the initial hessian          ...  (Almloef) done
Evaluating the coordinates              ...  done
Calculating the B-matrix                .... done
Calculating the G-matrix                .... done
The number of degrees of freedom        ....  408
Storing new coordinates                 .... done

    -----------------------------------------------------------------
                    Redundant Internal Coordinates


    -----------------------------------------------------------------
         Definition                    Initial Value    Approx d2E/dq
    -----------------------------------------------------------------
      1. B(C   1,C   0)                  1.3936         0.616565   
      2. B(C   2,C   1)                  1.3969         0.609259   
      3. B(C   3,C   2)                  1.4111         0.578125   
      4. B(C   4,C   3)                  1.4080         0.584775   
      5. B(C   5,C   0)                  1.3878         0.629867   
      6. B(C   5,C   4)                  1.3727         0.665852   
      7. B(H   6,C   0)                  1.0855         0.366061   
      8. B(H   7,C   1)                  1.0869         0.364263   
      9. B(H   8,C   4)                  1.0814         0.371710   
     10. B(H   9,C   5)                  1.0826         0.370032   
     11. B(B  10,C   2)                  1.5922         0.344313   
     12. B(H  11,B  10)                  1.2795         0.207945 C 
     13. B(C  12,B  10)                  1.6881         0.242114 C 
     14. B(C  12,H  11)                  2.3763         0.010000 C 
     15. B(C  13,C  12)                  1.3900         0.624752   
     16. B(C  14,C  13)                  1.4050         0.591290   
     17. B(H  15,C  13)                  1.1110         0.333321   
     18. B(C  16,C  14)                  1.3756         0.658665   
     19. B(H  17,C  14)                  1.0823         0.370406   
     20. B(H  18,C  16)                  1.0822         0.370603   
     21. B(B  19,B  10)                  1.8780         0.139566 C 
     22. B(B  19,H  11)                  1.3780         0.144774 C 
     23. B(B  19,C  12)                  1.7484         0.193957 C 
     24. B(O  20,B  19)                  1.3969         0.631957   
     25. B(O  21,B  19)                  1.4005         0.623590   
     26. B(C  22,O  20)                  1.4369         0.470978   
     27. B(C  23,O  21)                  1.4364         0.471958   
     28. B(C  23,C  22)                  1.5668         0.326356   
     29. B(C  24,C  22)                  1.5305         0.372943   
     30. B(H  25,C  24)                  1.0927         0.356483   
     31. B(H  26,C  24)                  1.0937         0.355189   
     32. B(H  27,C  24)                  1.0938         0.355095   
     33. B(C  28,C  22)                  1.5216         0.385233   
     34. B(H  29,C  28)                  1.0931         0.356038   
     35. B(H  30,C  28)                  1.0910         0.358755   
     36. B(H  31,C  28)                  1.0949         0.353714   
     37. B(C  32,C  23)                  1.5318         0.371181   
     38. B(H  33,C  32)                  1.0932         0.355907   
     39. B(H  34,C  32)                  1.0937         0.355264   
     40. B(H  35,C  32)                  1.0939         0.354958   
     41. B(C  36,C  23)                  1.5212         0.385852   
     42. B(H  37,C  36)                  1.0947         0.353928   
     43. B(H  38,C  36)                  1.0930         0.356157   
     44. B(H  39,C  36)                  1.0911         0.358592   
     45. B(N  40,C   3)                  1.4769         0.406638   
     46. B(S  41,C  12)                  1.7448         0.457549   
     47. B(S  41,C  16)                  1.7006         0.538318   
     48. B(H  42,B  10)                  1.1997         0.278777   
     49. B(C  43,N  40)                  1.5133         0.355718   
     50. B(C  44,N  40)                  1.5214         0.345385   
     51. B(C  45,C  43)                  1.5728         0.319177   
     52. B(C  46,C  43)                  1.5570         0.338339   
     53. B(C  47,C  43)                  1.5638         0.329982   
     54. B(C  48,C  45)                  1.5357         0.365796   
     55. B(H  49,C  45)                  1.1128         0.331119   
     56. B(H  50,C  45)                  1.1106         0.333835   
     57. B(C  51,C  44)                  1.5764         0.315031   
     58. B(C  51,C  48)                  1.5144         0.395545   
     59. B(C  52,C  44)                  1.5624         0.331712   
     60. B(C  53,C  44)                  1.5533         0.342976   
     61. B(H  54,C  51)                  1.1124         0.331674   
     62. B(H  55,C  51)                  1.1056         0.340080   
     63. B(H  56,C  48)                  1.1113         0.333026   
     64. B(H  57,C  48)                  1.1090         0.335808   
     65. B(H  58,C  52)                  1.1116         0.332574   
     66. B(H  59,C  52)                  1.1094         0.335378   
     67. B(H  60,C  52)                  1.1038         0.342357   
     68. B(H  61,C  53)                  1.1119         0.332209   
     69. B(H  62,C  53)                  1.0881         0.362580   
     70. B(H  63,C  53)                  1.1007         0.346268   
     71. B(H  64,C  46)                  1.0946         0.354099   
     72. B(H  65,C  46)                  1.0988         0.348673   
     73. B(H  66,C  46)                  1.1122         0.331917   
     74. B(H  67,C  47)                  1.1012         0.345577   
     75. B(H  68,C  47)                  1.1121         0.331994   
     76. B(H  69,C  47)                  1.0930         0.356131   
     77. A(C   1,C   0,H   6)          120.1194         0.353559   
     78. A(C   5,C   0,H   6)          120.4868         0.354840   
     79. A(C   1,C   0,C   5)          119.3861         0.434866   
     80. A(C   0,C   1,C   2)          122.0166         0.432272   
     81. A(C   2,C   1,H   7)          118.9416         0.352552   
     82. A(C   0,C   1,H   7)          118.9959         0.353264   
     83. A(C   3,C   2,B  10)          120.5377         0.389532   
     84. A(C   1,C   2,B  10)          121.4775         0.393121   
     85. A(C   1,C   2,C   3)          117.8765         0.427307   
     86. A(C   4,C   3,N  40)          115.0288         0.395975   
     87. A(C   2,C   3,C   4)          119.4954         0.424181   
     88. A(C   2,C   3,N  40)          125.3575         0.395181   
     89. A(C   3,C   4,H   8)          121.6410         0.351315   
     90. A(C   3,C   4,C   5)          121.2401         0.435072   
     91. A(C   5,C   4,H   8)          117.1061         0.359139   
     92. A(C   4,C   5,H   9)          120.1163         0.358862   
     93. A(C   0,C   5,H   9)          119.9063         0.355490   
     94. A(C   0,C   5,C   4)          119.9757         0.440939   
     95. A(H  11,B  10,C  12)          105.5788         0.282330   
     96. A(C  12,B  10,H  42)          108.4131         0.295592   
     97. A(C   2,B  10,H  42)          121.6756         0.312732   
     98. A(B  19,B  10,H  42)          116.0479         0.273300   
     99. A(C  12,B  10,B  19)           58.4297         0.294498   
    100. A(C   2,B  10,H  11)          106.2161         0.298370   
    101. A(H  11,B  10,B  19)           47.2037         0.261469   
    102. A(H  11,B  10,H  42)          100.8898         0.262387   
    103. A(C   2,B  10,C  12)          112.2764         0.338466   
    104. A(C   2,B  10,B  19)          120.3854         0.311548   
    105. A(B  10,H  11,B  19)           89.8519         0.238489 C 
    106. A(C  13,C  12,B  19)          114.4517         0.357597   
    107. A(B  10,C  12,B  19)           66.2262         0.308078 C 
    108. A(B  19,C  12,S  41)          119.9201         0.356886   
    109. A(C  13,C  12,S  41)          108.8418         0.434345   
    110. A(B  10,C  12,C  13)          123.9137         0.371423   
    111. A(B  10,C  12,S  41)          118.0661         0.370676   
    112. A(C  12,C  13,C  14)          114.5555         0.430973   
    113. A(C  12,C  13,H  15)          123.8363         0.348782   
    114. A(C  14,C  13,H  15)          121.5801         0.345565   
    115. A(C  13,C  14,C  16)          111.5737         0.435089   
    116. A(C  13,C  14,H  17)          124.6460         0.351765   
    117. A(C  16,C  14,H  17)          123.7803         0.358262   
    118. A(H  18,C  16,S  41)          120.4283         0.364334   
    119. A(C  14,C  16,H  18)          127.0258         0.358294   
    120. A(C  14,C  16,S  41)          112.5457         0.451601   
    121. A(B  10,B  19,H  11)           42.9444         0.247898   
    122. A(H  11,B  19,C  12)           98.2408         0.258397   
    123. A(B  10,B  19,O  20)          124.6702         0.342291   
    124. A(H  11,B  19,O  20)          109.0781         0.308542   
    125. A(B  10,B  19,C  12)           55.3440         0.284438   
    126. A(C  12,B  19,O  20)          113.2823         0.359028   
    127. A(B  10,B  19,O  21)          120.7407         0.341528   
    128. A(H  11,B  19,O  21)          105.6744         0.307880   
    129. A(C  12,B  19,O  21)          116.9841         0.358214   
    130. A(O  20,B  19,O  21)          112.0776         0.437906   
    131. A(B  19,O  20,C  22)          106.2395         0.412854   
    132. A(B  19,O  21,C  23)          105.4762         0.412030   
    133. A(O  20,C  22,C  23)          102.1217         0.367106   
    134. A(O  20,C  22,C  24)          107.7787         0.375634   
    135. A(C  23,C  22,C  24)          112.6229         0.354986   
    136. A(C  23,C  22,C  28)          114.6639         0.356945   
    137. A(O  20,C  22,C  28)          108.6425         0.377745   
    138. A(C  24,C  22,C  28)          110.4146         0.365161   
    139. A(C  22,C  23,C  36)          114.8316         0.357042   
    140. A(O  21,C  23,C  32)          107.9318         0.375461   
    141. A(C  22,C  23,C  32)          112.5670         0.354701   
    142. A(O  21,C  23,C  36)          108.6148         0.377986   
    143. A(O  21,C  23,C  22)          101.9457         0.367237   
    144. A(C  32,C  23,C  36)          110.3518         0.364965   
    145. A(C  22,C  24,H  26)          111.6879         0.323499   
    146. A(C  22,C  24,H  25)          108.7489         0.323692   
    147. A(H  25,C  24,H  26)          108.5266         0.289754   
    148. A(C  22,C  24,H  27)          111.0938         0.323485   
    149. A(H  25,C  24,H  27)          108.1734         0.289742   
    150. A(H  26,C  24,H  27)          108.5154         0.289577   
    151. A(H  30,C  28,H  31)          108.8938         0.289854   
    152. A(C  22,C  28,H  29)          109.8515         0.325354   
    153. A(C  22,C  28,H  30)          111.1565         0.325761   
    154. A(H  29,C  28,H  30)          108.0420         0.290151   
    155. A(C  22,C  28,H  31)          110.6441         0.325004   
    156. A(H  29,C  28,H  31)          108.1644         0.289508   
    157. A(H  34,C  32,H  35)          108.6103         0.289569   
    158. A(C  23,C  32,H  33)          108.7017         0.323355   
    159. A(C  23,C  32,H  34)          111.5459         0.323259   
    160. A(H  33,C  32,H  34)          108.5075         0.289690   
    161. A(H  33,C  32,H  35)          108.1625         0.289651   
    162. A(C  23,C  32,H  35)          111.2184         0.323213   
    163. A(C  23,C  36,H  37)          110.6234         0.325122   
    164. A(C  23,C  36,H  38)          109.7909         0.325457   
    165. A(H  37,C  36,H  38)          108.2084         0.289551   
    166. A(C  23,C  36,H  39)          111.2424         0.325822   
    167. A(H  37,C  36,H  39)          108.8051         0.289860   
    168. A(H  38,C  36,H  39)          108.0825         0.290146   
    169. A(C   3,N  40,C  43)          118.7867         0.361052   
    170. A(C   3,N  40,C  44)          117.7019         0.359243   
    171. A(C  43,N  40,C  44)          115.5537         0.351182   
    172. A(C  12,S  41,C  16)           92.4788         0.446341   
    173. A(N  40,C  43,C  45)          111.6073         0.348678   
    174. A(N  40,C  43,C  46)          110.0003         0.352127   
    175. A(C  45,C  43,C  46)          108.7024         0.347881   
    176. A(N  40,C  43,C  47)          115.1910         0.350642   
    177. A(C  45,C  43,C  47)          107.7135         0.346419   
    178. A(C  46,C  43,C  47)          103.1550         0.349839   
    179. A(N  40,C  44,C  51)          111.7657         0.346189   
    180. A(N  40,C  44,C  52)          111.9665         0.349210   
    181. A(C  51,C  44,C  52)          105.8903         0.345963   
    182. A(N  40,C  44,C  53)          113.5669         0.351184   
    183. A(C  51,C  44,C  53)          105.8566         0.347912   
    184. A(C  52,C  44,C  53)          107.2883         0.350954   
    185. A(C  43,C  45,C  48)          113.8597         0.352493   
    186. A(C  43,C  45,H  49)          108.6606         0.311813   
    187. A(C  48,C  45,H  49)          110.1787         0.318795   
    188. A(C  43,C  45,H  50)          113.6024         0.312225   
    189. A(C  48,C  45,H  50)          106.1736         0.319220   
    190. A(H  49,C  45,H  50)          103.8917         0.283677   
    191. A(H  64,C  46,H  66)          103.6037         0.286398   
    192. A(C  43,C  46,H  64)          115.6677         0.318227   
    193. A(C  43,C  46,H  65)          110.7023         0.317428   
    194. A(H  64,C  46,H  65)          107.8052         0.288611   
    195. A(C  43,C  46,H  66)          111.0237         0.314895   
    196. A(H  65,C  46,H  66)          107.5352         0.285709   
    197. A(C  43,C  47,H  67)          115.9487         0.315680   
    198. A(C  43,C  47,H  68)          110.3483         0.313632   
    199. A(H  67,C  47,H  68)          103.9637         0.285323   
    200. A(C  43,C  47,H  69)          112.0905         0.317229   
    201. A(H  67,C  47,H  69)          106.6719         0.288467   
    202. A(H  68,C  47,H  69)          107.1773         0.286664   
    203. A(H  56,C  48,H  57)          107.2782         0.284190   
    204. A(C  45,C  48,C  51)          109.3570         0.365602   
    205. A(C  45,C  48,H  56)          108.9874         0.319094   
    206. A(C  51,C  48,H  56)          112.2750         0.323202   
    207. A(C  45,C  48,H  57)          110.7111         0.319528   
    208. A(C  51,C  48,H  57)          108.2227         0.323644   
    209. A(C  44,C  51,C  48)          110.2564         0.356405   
    210. A(C  44,C  51,H  54)          110.6372         0.311239   
    211. A(C  48,C  51,H  54)          111.2595         0.322987   
    212. A(C  44,C  51,H  55)          113.9610         0.312501   
    213. A(C  48,C  51,H  55)          106.6306         0.324316   
    214. A(H  54,C  51,H  55)          103.9043         0.284569   
    215. A(C  44,C  52,H  59)          111.7809         0.314415   
    216. A(H  58,C  52,H  59)          107.4033         0.284073   
    217. A(C  44,C  52,H  60)          112.6549         0.315468   
    218. A(H  58,C  52,H  60)          105.4995         0.284985   
    219. A(H  59,C  52,H  60)          108.1570         0.285358   
    220. A(C  44,C  52,H  58)          111.0096         0.313987   
    221. A(C  44,C  53,H  61)          109.9985         0.315638   
    222. A(C  44,C  53,H  62)          114.9628         0.320170   
    223. A(H  61,C  53,H  62)          105.9064         0.287498   
    224. A(C  44,C  53,H  63)          113.5815         0.317774   
    225. A(H  61,C  53,H  63)          106.4472         0.285441   
    226. A(H  62,C  53,H  63)          105.3121         0.289369   
    227. D(H   7,C   1,C   0,H   6)     -1.7022         0.026288   
    228. D(C   2,C   1,C   0,C   5)     -0.2225         0.026288   
    229. D(H   7,C   1,C   0,C   5)    177.2871         0.026288   
    230. D(C   2,C   1,C   0,H   6)   -179.2118         0.026288   
    231. D(B  10,C   2,C   1,H   7)     -1.9204         0.025633   
    232. D(C   3,C   2,C   1,H   7)   -178.1551         0.025633   
    233. D(C   3,C   2,C   1,C   0)     -0.6442         0.025633   
    234. D(B  10,C   2,C   1,C   0)    175.5905         0.025633   
    235. D(C   4,C   3,C   2,B  10)   -175.1861         0.022956   
    236. D(C   4,C   3,C   2,C   1)      1.0856         0.022956   
    237. D(N  40,C   3,C   2,B  10)      8.9737         0.022956   
    238. D(N  40,C   3,C   2,C   1)   -174.7546         0.022956   
    239. D(H   8,C   4,C   3,C   2)   -179.3535         0.023512   
    240. D(H   8,C   4,C   3,N  40)     -3.0970         0.023512   
    241. D(C   5,C   4,C   3,C   2)     -0.6946         0.023512   
    242. D(C   5,C   4,C   3,N  40)    175.5618         0.023512   
    243. D(H   9,C   5,C   0,H   6)     -0.8389         0.027507   
    244. D(C   4,C   5,C   0,C   1)      0.6466         0.027507   
    245. D(H   9,C   5,C   0,C   1)   -179.8244         0.027507   
    246. D(C   4,C   5,C   0,H   6)    179.6322         0.027507   
    247. D(C   0,C   5,C   4,C   3)     -0.1896         0.030978   
    248. D(H   9,C   5,C   4,C   3)   -179.7176         0.030978   
    249. D(H   9,C   5,C   4,H   8)     -1.0002         0.030978   
    250. D(C   0,C   5,C   4,H   8)    178.5278         0.030978   
    251. D(H  11,B  10,C   2,C   1)      3.5522         0.010000   
    252. D(C  12,B  10,C   2,C   1)   -111.3701         0.010000   
    253. D(H  11,B  10,C   2,C   3)    179.6877         0.010000   
    254. D(B  19,B  10,C   2,C   3)    130.2047         0.010000   
    255. D(B  19,B  10,C   2,C   1)    -45.9308         0.010000   
    256. D(C  12,B  10,C   2,C   3)     64.7654         0.010000   
    257. D(B  19,H  11,B  10,C   2)   -116.6549         0.030317   
    258. D(B  19,H  11,B  10,C  12)      2.7465         0.030317   
    259. D(B  19,H  11,B  10,H  42)    115.5495         0.030317   
    260. D(C  13,C  12,B  10,C   2)      8.5339         0.010000   
    261. D(C  13,C  12,B  10,H  11)   -106.7756         0.010000   
    262. D(C  13,C  12,B  10,B  19)   -104.4104         0.010000   
    263. D(C  13,C  12,B  10,H  42)    145.7953         0.010000   
    264. D(B  19,C  12,B  10,C   2)    112.9443         0.010000   
    265. D(B  19,C  12,B  10,H  11)     -2.3651         0.010000   
    266. D(B  19,C  12,B  10,H  42)   -109.7942         0.010000   
    267. D(H  15,C  13,C  12,B  19)    -41.5880         0.031584   
    268. D(C  14,C  13,C  12,B  19)    136.5061         0.031584   
    269. D(C  14,C  13,C  12,S  41)     -0.7273         0.031584   
    270. D(C  14,C  13,C  12,B  10)   -146.6684         0.031584   
    271. D(H  15,C  13,C  12,B  10)     35.2376         0.031584   
    272. D(C  16,C  14,C  13,C  12)      0.5458         0.024065   
    273. D(C  16,C  14,C  13,H  15)    178.6875         0.024065   
    274. D(H  17,C  14,C  13,C  12)   -179.5569         0.024065   
    275. D(H  17,C  14,C  13,H  15)     -1.4152         0.024065   
    276. D(H  18,C  16,C  14,C  13)    179.7510         0.030264   
    277. D(H  18,C  16,C  14,H  17)     -0.1474         0.030264   
    278. D(S  41,C  16,C  14,C  13)     -0.0913         0.030264   
    279. D(S  41,C  16,C  14,H  17)   -179.9896         0.030264   
    280. D(O  20,B  19,H  11,B  10)   -120.7896         0.014094   
    281. D(H  11,B  19,B  10,C  12)   -176.8945         0.010000   
    282. D(H  11,B  19,B  10,H  42)    -80.4462         0.010000   
    283. D(C  12,B  19,B  10,C   2)    -98.9436         0.010000   
    284. D(C  12,B  19,B  10,H  11)    176.8945         0.010000   
    285. D(C  12,B  19,B  10,H  42)     96.4483         0.010000   
    286. D(O  20,B  19,B  10,C   2)    164.9653         0.010000   
    287. D(O  20,B  19,B  10,H  11)     80.8034         0.010000   
    288. D(H  11,B  19,B  10,C   2)     84.1619         0.010000   
    289. D(C  12,B  19,H  11,B  10)     -2.5808         0.014094   
    290. D(O  20,B  19,C  12,C  13)   -124.9120         0.010000   
    291. D(B  10,B  19,C  12,C  13)    117.9983         0.010000   
    292. D(B  10,B  19,C  12,S  41)   -109.8565         0.010000   
    293. D(H  11,B  19,C  12,B  10)      2.1372         0.010000   
    294. D(H  11,B  19,C  12,C  13)    120.1356         0.010000   
    295. D(H  11,B  19,C  12,S  41)   -107.7192         0.010000   
    296. D(O  21,B  19,H  11,B  10)    118.5388         0.014094   
    297. D(O  20,B  19,C  12,B  10)    117.0896         0.010000   
    298. D(C  22,O  20,B  19,B  10)   -153.8337         0.028587   
    299. D(C  22,O  20,B  19,H  11)   -108.4670         0.028587   
    300. D(C  22,O  20,B  19,C  12)    143.2368         0.028587   
    301. D(C  22,O  20,B  19,O  21)      8.1979         0.028587   
    302. D(C  23,O  21,B  19,B  10)    178.0855         0.027789   
    303. D(C  23,O  21,B  19,H  11)    133.9504         0.027789   
    304. D(C  23,O  21,B  19,C  12)   -117.9942         0.027789   
    305. D(C  23,O  21,B  19,O  20)     15.2548         0.027789   
    306. D(C  23,C  22,O  20,B  19)    -25.8446         0.017486   
    307. D(C  24,C  22,O  20,B  19)     92.9740         0.017486   
    308. D(C  28,C  22,O  20,B  19)   -147.3718         0.017486   
    309. D(C  32,C  23,C  22,C  28)     36.3520         0.010000   
    310. D(C  22,C  23,O  21,B  19)    -29.8693         0.017560   
    311. D(C  32,C  23,O  21,B  19)     88.8651         0.017560   
    312. D(O  21,C  23,C  22,O  20)     34.4545         0.010000   
    313. D(O  21,C  23,C  22,C  24)    -80.8761         0.010000   
    314. D(C  32,C  23,C  22,O  20)    -80.9316         0.010000   
    315. D(C  32,C  23,C  22,C  24)    163.7377         0.010000   
    316. D(C  36,C  23,O  21,B  19)   -151.4840         0.017560   
    317. D(O  21,C  23,C  22,C  28)    151.7381         0.010000   
    318. D(H  25,C  24,C  22,O  20)     55.3302         0.011108   
    319. D(H  25,C  24,C  22,C  23)    167.2019         0.011108   
    320. D(H  25,C  24,C  22,C  28)    -63.1942         0.011108   
    321. D(H  26,C  24,C  22,O  20)    175.0730         0.011108   
    322. D(H  26,C  24,C  22,C  23)    -73.0553         0.011108   
    323. D(H  26,C  24,C  22,C  28)     56.5486         0.011108   
    324. D(H  29,C  28,C  22,O  20)    -67.1950         0.011812   
    325. D(H  29,C  28,C  22,C  23)    179.3034         0.011812   
    326. D(H  29,C  28,C  22,C  24)     50.8008         0.011812   
    327. D(H  30,C  28,C  22,O  20)     52.3299         0.011812   
    328. D(H  30,C  28,C  22,C  23)    -61.1718         0.011812   
    329. D(H  30,C  28,C  22,C  24)    170.3257         0.011812   
    330. D(H  33,C  32,C  23,O  21)     55.4081         0.011010   
    331. D(H  33,C  32,C  23,C  22)    167.1284         0.011010   
    332. D(H  33,C  32,C  23,C  36)    -63.1388         0.011010   
    333. D(H  34,C  32,C  23,O  21)    175.0091         0.011010   
    334. D(H  34,C  32,C  23,C  22)    -73.2707         0.011010   
    335. D(H  34,C  32,C  23,C  36)     56.4622         0.011010   
    336. D(H  37,C  36,C  23,O  21)    173.9679         0.011848   
    337. D(H  37,C  36,C  23,C  22)     60.6070         0.011848   
    338. D(H  37,C  36,C  23,C  32)    -67.9035         0.011848   
    339. D(H  38,C  36,C  23,O  21)    -66.6750         0.011848   
    340. D(H  38,C  36,C  23,C  22)    179.9641         0.011848   
    341. D(H  38,C  36,C  23,C  32)     51.4536         0.011848   
    342. D(C  43,N  40,C   3,C   2)   -139.7302         0.013049   
    343. D(C  43,N  40,C   3,C   4)     44.2654         0.013049   
    344. D(C  44,N  40,C   3,C   2)     72.6627         0.013049   
    345. D(C  44,N  40,C   3,C   4)   -103.3416         0.013049   
    346. D(C  16,S  41,C  12,B  10)    148.7774         0.010000   
    347. D(C  16,S  41,C  12,C  13)      0.5606         0.010000   
    348. D(C  16,S  41,C  12,B  19)   -133.9466         0.010000   
    349. D(C  12,S  41,C  16,C  14)     -0.2749         0.010000   
    350. D(C  12,S  41,C  16,H  18)    179.8711         0.010000   
    351. D(C  45,C  43,N  40,C   3)    -94.0047         0.010902   
    352. D(C  45,C  43,N  40,C  44)     54.2769         0.010902   
    353. D(C  46,C  43,N  40,C   3)    145.2526         0.010902   
    354. D(C  46,C  43,N  40,C  44)    -66.4659         0.010902   
    355. D(C  47,C  43,N  40,C   3)     29.2219         0.010902   
    356. D(C  51,C  44,N  40,C   3)    123.1715         0.010315   
    357. D(C  51,C  44,N  40,C  43)    -25.4678         0.010315   
    358. D(C  52,C  44,N  40,C   3)      4.5553         0.010315   
    359. D(C  52,C  44,N  40,C  43)   -144.0839         0.010315   
    360. D(C  53,C  44,N  40,C   3)   -117.1494         0.010315   
    361. D(C  48,C  45,C  43,N  40)    -20.6945         0.010000   
    362. D(C  48,C  45,C  43,C  46)    100.8032         0.010000   
    363. D(C  48,C  45,C  43,C  47)   -148.0746         0.010000   
    364. D(H  49,C  45,C  43,N  40)   -143.8891         0.010000   
    365. D(H  49,C  45,C  43,C  46)    -22.3913         0.010000   
    366. D(H  49,C  45,C  43,C  47)     88.7309         0.010000   
    367. D(H  64,C  46,C  43,N  40)     66.9227         0.010000   
    368. D(H  64,C  46,C  43,C  45)    -55.5527         0.010000   
    369. D(H  64,C  46,C  43,C  47)   -169.6945         0.010000   
    370. D(H  65,C  46,C  43,N  40)    -56.0537         0.010000   
    371. D(H  65,C  46,C  43,C  45)   -178.5291         0.010000   
    372. D(H  65,C  46,C  43,C  47)     67.3291         0.010000   
    373. D(H  67,C  47,C  43,N  40)    -66.0323         0.010000   
    374. D(H  67,C  47,C  43,C  45)     59.2382         0.010000   
    375. D(H  67,C  47,C  43,C  46)    174.0938         0.010000   
    376. D(H  68,C  47,C  43,N  40)    176.1476         0.010000   
    377. D(H  68,C  47,C  43,C  45)    -58.5820         0.010000   
    378. D(H  68,C  47,C  43,C  46)     56.2736         0.010000   
    379. D(C  51,C  48,C  45,C  43)    -37.7122         0.010712   
    380. D(C  51,C  48,C  45,H  49)     84.6512         0.010712   
    381. D(C  51,C  48,C  45,H  50)   -163.4533         0.010712   
    382. D(H  56,C  48,C  45,C  43)   -160.7889         0.010712   
    383. D(H  56,C  48,C  45,H  49)    -38.4255         0.010712   
    384. D(H  56,C  48,C  45,H  50)     73.4700         0.010712   
    385. D(C  48,C  51,C  44,N  40)    -34.9271         0.010000   
    386. D(C  48,C  51,C  44,C  52)     87.2438         0.010000   
    387. D(C  48,C  51,C  44,C  53)   -159.0487         0.010000   
    388. D(H  54,C  51,C  44,N  40)   -158.4305         0.010000   
    389. D(H  54,C  51,C  44,C  52)    -36.2596         0.010000   
    390. D(H  54,C  51,C  44,C  53)     77.4479         0.010000   
    391. D(C  44,C  51,C  48,C  45)     67.3073         0.012424   
    392. D(C  44,C  51,C  48,H  56)   -171.5904         0.012424   
    393. D(C  44,C  51,C  48,H  57)    -53.3763         0.012424   
    394. D(H  54,C  51,C  48,C  45)   -169.5517         0.012424   
    395. D(H  54,C  51,C  48,H  56)    -48.4493         0.012424   
    396. D(H  54,C  51,C  48,H  57)     69.7647         0.012424   
    397. D(H  58,C  52,C  44,N  40)    177.7056         0.010000   
    398. D(H  58,C  52,C  44,C  51)     55.6632         0.010000   
    399. D(H  58,C  52,C  44,C  53)    -57.0508         0.010000   
    400. D(H  59,C  52,C  44,N  40)     57.8055         0.010000   
    401. D(H  59,C  52,C  44,C  51)    -64.2369         0.010000   
    402. D(H  59,C  52,C  44,C  53)   -176.9509         0.010000   
    403. D(H  61,C  53,C  44,N  40)   -178.5175         0.010000   
    404. D(H  61,C  53,C  44,C  51)    -55.5300         0.010000   
    405. D(H  61,C  53,C  44,C  52)     57.2068         0.010000   
    406. D(H  62,C  53,C  44,N  40)     62.0679         0.010000   
    407. D(H  62,C  53,C  44,C  51)   -174.9446         0.010000   
    408. D(H  62,C  53,C  44,C  52)    -62.2078         0.010000   
    -----------------------------------------------------------------

Number of atoms                         .... 70
Number of degrees of freedom            .... 408


         *************************************************************
         *                GEOMETRY OPTIMIZATION CYCLE   1            *
         *************************************************************
---------------------------------
CARTESIAN COORDINATES (ANGSTROEM)
---------------------------------
  C     -1.899140   -2.306660    0.193710
  C     -0.570220   -1.913070    0.048080
  C     -0.163440   -0.591390    0.245300
  C     -1.149250    0.358100    0.588730
  C     -2.486440   -0.055370    0.741980
  C     -2.853430   -1.364040    0.549780
  H     -2.179120   -3.344930    0.045440
  H      0.179030   -2.664430   -0.187230
  H     -3.271230    0.644450    0.994370
  H     -3.887730   -1.661120    0.668000
  B      1.371870   -0.175090    0.177270
  H      2.014740   -1.232520   -0.147710
  C      1.979140    0.279160    1.685390
  C      1.282860    0.129080    2.879050
  C      1.535660    1.129830    3.832270
  H      0.602530   -0.722190    3.095590
  C      2.427140    2.064880    3.359720
  H      1.088010    1.168900    4.816900
  H      2.792380    2.939390    3.882150
  B      2.673900   -1.199250    1.062000
  O      4.048520   -1.108680    0.830610
  O      2.327210   -2.388920    1.714660
  C      4.600750   -2.387060    1.184950
  C      3.559870   -2.917060    2.229210
  C      4.650220   -3.242460   -0.083180
  H      5.212110   -2.702610   -0.849300
  H      5.141650   -4.202990    0.096100
  H      3.644570   -3.433410   -0.468700
  C      6.002690   -2.175110    1.737230
  H      6.664260   -1.818250    0.943620
  H      6.002900   -1.432670    2.536670
  H      6.410740   -3.114070    2.125290
  C      3.777860   -2.329260    3.626790
  H      2.900830   -2.550410    4.240770
  H      4.658440   -2.760710    4.111110
  H      3.899600   -1.242950    3.584840
  C      3.445170   -4.432060    2.304450
  H      4.403090   -4.877490    2.591440
  H      2.700770   -4.710020    3.054950
  H      3.134320   -4.853030    1.346980
  N     -0.924780    1.811280    0.727150
  S      2.950150    1.725880    1.777500
  H      1.778900    0.598980   -0.643930
  C     -1.604580    2.549010    1.860200
  C     -0.708280    2.617760   -0.544560
  C     -2.971950    3.178130    1.403770
  C     -0.681140    3.687910    2.383950
  C     -1.877890    1.694930    3.141310
  C     -3.094210    3.362920   -0.115890
  H     -3.105050    4.154370    1.921120
  H     -3.859310    2.587730    1.716000
  C     -1.754570    3.789170   -0.679110
  C     -0.878490    1.742700   -1.827620
  C      0.691000    3.287250   -0.624710
  H     -1.847210    4.112230   -1.739510
  H     -1.465860    4.712690   -0.144280
  H     -3.894890    4.104130   -0.326730
  H     -3.388930    2.411810   -0.604190
  H     -0.757710    2.355740   -2.747050
  H     -1.881000    1.269880   -1.873400
  H     -0.118570    0.945720   -1.902570
  H      0.775470    3.880870   -1.561140
  H      1.531120    2.595760   -0.633160
  H      0.894800    3.982110    0.204200
  H     -0.502190    4.511920    1.686040
  H      0.295660    3.287060    2.688080
  H     -1.128680    4.188530    3.270540
  H     -2.603710    0.874600    3.027740
  H     -2.313830    2.329820    3.943610
  H     -0.963100    1.250970    3.542240

----------------------------
CARTESIAN COORDINATES (A.U.)
----------------------------
  NO LB      ZA    FRAG     MASS         X           Y           Z
   0 C     6.0000    0    12.011   -3.588854   -4.358956    0.366059
   1 C     6.0000    0    12.011   -1.077560   -3.615178    0.090858
   2 C     6.0000    0    12.011   -0.308857   -1.117565    0.463550
   3 C     6.0000    0    12.011   -2.171768    0.676711    1.112538
   4 C     6.0000    0    12.011   -4.698691   -0.104634    1.402139
   5 C     6.0000    0    12.011   -5.392201   -2.577662    1.038934
   6 H     1.0000    0     1.008   -4.117940   -6.321002    0.085869
   7 H     1.0000    0     1.008    0.338318   -5.035043   -0.353813
   8 H     1.0000    0     1.008   -6.181729    1.217834    1.879087
   9 H     1.0000    0     1.008   -7.346745   -3.139062    1.262337
  10 B     5.0000    0    10.810    2.592459   -0.330872    0.334992
  11 H     1.0000    0     1.008    3.807307   -2.329125   -0.279131
  12 C     6.0000    0    12.011    3.740033    0.527536    3.184926
  13 C     6.0000    0    12.011    2.424254    0.243926    5.440616
  14 C     6.0000    0    12.011    2.901977    2.135069    7.241941
  15 H     1.0000    0     1.008    1.138617   -1.364741    5.849817
  16 C     6.0000    0    12.011    4.586630    3.902058    6.348951
  17 H     1.0000    0     1.008    2.056041    2.208901    9.102622
  18 H     1.0000    0     1.008    5.276833    5.554642    7.336200
  19 B     5.0000    0    10.810    5.052939   -2.266254    2.006889
  20 O     8.0000    0    15.999    7.650594   -2.095102    1.569625
  21 O     8.0000    0    15.999    4.397790   -4.514405    3.240238
  22 C     6.0000    0    12.011    8.694158   -4.510890    2.239231
  23 C     6.0000    0    12.011    6.727179   -5.512445    4.212596
  24 C     6.0000    0    12.011    8.787642   -6.127361   -0.157187
  25 H     1.0000    0     1.008    9.849460   -5.107193   -1.604944
  26 H     1.0000    0     1.008    9.716310   -7.942500    0.181603
  27 H     1.0000    0     1.008    6.887239   -6.488205   -0.885715
  28 C     6.0000    0    12.011   11.343440   -4.110362    3.282889
  29 H     1.0000    0     1.008   12.593626   -3.435995    1.783183
  30 H     1.0000    0     1.008   11.343837   -2.707354    4.793612
  31 H     1.0000    0     1.008   12.114543   -5.884739    4.016216
  32 C     6.0000    0    12.011    7.139121   -4.401663    6.853640
  33 H     1.0000    0     1.008    5.481774   -4.819576    8.013894
  34 H     1.0000    0     1.008    8.803176   -5.216986    7.768872
  35 H     1.0000    0     1.008    7.369176   -2.348835    6.774366
  36 C     6.0000    0    12.011    6.510428   -8.375380    4.354779
  37 H     1.0000    0     1.008    8.320634   -9.217120    4.897112
  38 H     1.0000    0     1.008    5.103716   -8.900648    5.773019
  39 H     1.0000    0     1.008    5.923006   -9.170898    2.545423
  40 N     7.0000    0    14.007   -1.747581    3.422823    1.374114
  41 S    16.0000    0    32.060    5.574976    3.261441    3.358988
  42 H     1.0000    0     1.008    3.361634    1.131908   -1.216851
  43 C     6.0000    0    12.011   -3.032217    4.816931    3.515269
  44 C     6.0000    0    12.011   -1.338455    4.946849   -1.029069
  45 C     6.0000    0    12.011   -5.616172    6.005795    2.652741
  46 C     6.0000    0    12.011   -1.287168    6.969140    4.505013
  47 C     6.0000    0    12.011   -3.548698    3.202954    5.936216
  48 C     6.0000    0    12.011   -5.847210    6.354998   -0.219000
  49 H     1.0000    0     1.008   -5.867694    7.850622    3.630391
  50 H     1.0000    0     1.008   -7.293039    4.890101    3.242770
  51 C     6.0000    0    12.011   -3.315657    7.160494   -1.283332
  52 C     6.0000    0    12.011   -1.660106    3.293226   -3.453701
  53 C     6.0000    0    12.011    1.305801    6.212002   -1.180531
  54 H     1.0000    0     1.008   -3.490721    7.770988   -3.287198
  55 H     1.0000    0     1.008   -2.770074    8.905693   -0.272650
  56 H     1.0000    0     1.008   -7.360275    7.755682   -0.617430
  57 H     1.0000    0     1.008   -6.404150    4.557660   -1.141754
  58 H     1.0000    0     1.008   -1.431864    4.451703   -5.191172
  59 H     1.0000    0     1.008   -3.554575    2.399725   -3.540213
  60 H     1.0000    0     1.008   -0.224065    1.787152   -3.595336
  61 H     1.0000    0     1.008    1.465426    7.333781   -2.950127
  62 H     1.0000    0     1.008    2.893397    4.905276   -1.196499
  63 H     1.0000    0     1.008    1.690927    7.525097    0.385882
  64 H     1.0000    0     1.008   -0.949002    8.526293    3.186154
  65 H     1.0000    0     1.008    0.558716    6.211643    5.079735
  66 H     1.0000    0     1.008   -2.132896    7.915175    6.180425
  67 H     1.0000    0     1.008   -4.920299    1.652754    5.721599
  68 H     1.0000    0     1.008   -4.372505    4.402722    7.452343
  69 H     1.0000    0     1.008   -1.819995    2.363991    6.693864

--------------------------------
INTERNAL COORDINATES (ANGSTROEM)
--------------------------------
 C      0   0   0     0.000000000000     0.00000000     0.00000000
 C      1   0   0     1.393610258071     0.00000000     0.00000000
 C      2   1   0     1.396854938496   122.01660155     0.00000000
 C      3   2   1     1.411133154986   117.87653048   359.35581761
 C      4   3   2     1.408019921557   119.49543283     1.08557649
 C      5   4   3     1.372676097628   121.24010871   359.30538692
 H      1   2   3     1.085530923650   120.11935933   180.78820064
 H      2   1   3     1.086870833264   118.99589265   177.50959869
 H      5   4   3     1.081362144982   121.64098151   180.64652499
 H      6   5   4     1.082593637890   120.11628194   180.28242651
 B      3   2   1     1.592203054576   121.47749411   175.59051310
 H     11   3   2     1.279473345639   106.21609546     3.55218852
 C     11   3   2     1.688059788574   112.27643989   248.62993639
 C     13  11   3     1.390019438857   123.91369762     8.53389688
 C     14  13  11     1.405004188926   114.55545075   213.33161512
 H     14  13  11     1.111035144989   123.83630317    35.23756328
 C     15  14  13     1.375630253884   111.57368590     0.54580462
 H     15  14  13     1.082318448655   124.64597030   180.44308583
 H     17  15  14     1.082174247799   127.02581022   179.75095777
 B     12  11   3     1.378041030811    89.85188126   243.34511384
 O     20  12  11     1.396898135656   109.07808211   239.21041208
 O     20  12  11     1.400526237027   105.67442697   118.53884746
 C     21  20  12     1.436930837897   106.23950841   251.53300836
 C     22  20  12     1.436364938900   105.47615080   133.95043608
 C     23  21  20     1.530460759967   107.77868757    92.97395703
 H     25  23  21     1.092748026308   108.74894496    55.33024958
 H     25  23  21     1.093737922996   111.68786078   175.07304904
 H     25  23  21     1.093809624843   111.09384314   296.38572592
 C     23  21  20     1.521634569961   108.64248111   212.62819679
 H     29  23  21     1.093087716791   109.85152003   292.80504161
 H     29  23  21     1.091018565974   111.15650742    52.32988970
 H     29  23  21     1.094870425073   110.64413948   173.45097978
 C     24  22  20     1.531750089440   107.93175706    88.86505231
 H     33  24  22     1.093188174012   108.70169186    55.40808497
 H     33  24  22     1.093680072645   111.54588599   175.00906989
 H     33  24  22     1.093914917258   111.21844800   296.43181674
 C     24  22  20     1.521197603075   108.61483804   208.51604718
 H     37  24  22     1.094706294583   110.62340530   173.96790654
 H     37  24  22     1.092997425249   109.79091693   293.32499719
 H     37  24  22     1.091142641592   111.24235407    52.91543337
 N      4   3   2     1.476915363079   125.35747371   185.24541585
 S     17  15  14     1.700553024313   112.54574837   359.90868259
 H     11   3   2     1.199677967540   121.67564716   117.79703568
 C     41   4   3     1.513332711402   118.78672281   220.26975660
 C     41   4   3     1.521357474264   117.70193333    72.66272203
 C     44  41   4     1.572838528330   111.60726083   265.99534031
 C     44  41   4     1.556967792249   110.00025208   145.25256223
 C     44  41   4     1.563775506459   115.19104495    29.22189602
 C     46  44  41     1.535728285635   113.85973537   339.30546957
 H     46  44  41     1.112839238210   108.66063545   216.11094500
 H     46  44  41     1.110615821290   113.60244896   101.01697579
 C     49  46  44     1.514444175432   109.35699657   322.28780221
 C     45  41   4     1.562352204626   111.96647614     4.55531182
 C     45  41   4     1.553262824187   113.56692950   242.85058642
 H     52  49  46     1.112383968421   111.25947745   190.44832152
 H     52  49  46     1.105570343036   106.63056388   303.11180772
 H     49  46  44     1.111275947774   108.98736010   199.21109404
 H     49  46  44     1.109011722436   110.71112896    81.44281743
 H     53  45  41     1.111646245395   111.00960342   177.70561447
 H     53  45  41     1.109360563974   111.78086152    57.80551004
 H     53  45  41     1.103754061963   112.65491653   295.77193408
 H     54  45  41     1.111944706449   109.99848966   181.48249921
 H     54  45  41     1.088132086192   114.96276315    62.06789633
 H     54  45  41     1.100661913441   113.58150813   300.66646987
 H     47  44  41     1.094574780771   115.66772058    66.92268764
 H     47  44  41     1.098778421430   110.70231527   303.94634085
 H     47  44  41     1.112184455969   111.02370080   184.58562246
 H     48  44  41     1.101205760156   115.94868918   293.96774087
 H     48  44  41     1.112121524700   110.34833416   176.14759127
 H     48  44  41     1.093016967206   112.09046874    56.77652426

---------------------------
INTERNAL COORDINATES (A.U.)
---------------------------
 C      0   0   0     0.000000000000     0.00000000     0.00000000
 C      1   0   0     2.633541725177     0.00000000     0.00000000
 C      2   1   0     2.639673282572   122.01660155     0.00000000
 C      3   2   1     2.666655201419   117.87653048   359.35581761
 C      4   3   2     2.660772042847   119.49543283     1.08557649
 C      5   4   3     2.593981895097   121.24010871   359.30538692
 H      1   2   3     2.051356155601   120.11935933   180.78820064
 H      2   1   3     2.053888217816   118.99589265   177.50959869
 H      5   4   3     2.043478305606   121.64098151   180.64652499
 H      6   5   4     2.045805489938   120.11628194   180.28242651
 B      3   2   1     3.008827722741   121.47749411   175.59051310
 H     11   3   2     2.417854218909   106.21609546     3.55218852
 C     11   3   2     3.189970698090   112.27643989   248.62993639
 C     13  11   3     2.626756060266   123.91369762     8.53389688
 C     14  13  11     2.655073134083   114.55545075   213.33161512
 H     14  13  11     2.099552149190   123.83630317    35.23756328
 C     15  14  13     2.599564441377   111.57368590     0.54580462
 H     15  14  13     2.045285457649   124.64597030   180.44308583
 H     17  15  14     2.045012957523   127.02581022   179.75095777
 B     12  11   3     2.604120149540    89.85188126   243.34511384
 O     20  12  11     2.639754913376   109.07808211   239.21041208
 O     20  12  11     2.646611031352   105.67442697   118.53884746
 C     21  20  12     2.715405757012   106.23950841   251.53300836
 C     22  20  12     2.714336362887   105.47615080   133.95043608
 C     23  21  20     2.892151695051   107.77868757    92.97395703
 H     25  23  21     2.064994503105   108.74894496    55.33024958
 H     25  23  21     2.066865136747   111.68786078   175.07304904
 H     25  23  21     2.067000633601   111.09384314   296.38572592
 C     23  21  20     2.875472613133   108.64248111   212.62819679
 H     29  23  21     2.065636425089   109.85152003   292.80504161
 H     29  23  21     2.061726296714   111.15650742    52.32988970
 H     29  23  21     2.069005255518   110.64413948   173.45097978
 C     24  22  20     2.894588174651   107.93175706    88.86505231
 H     33  24  22     2.065826261724   108.70169186    55.40808497
 H     33  24  22     2.066755815425   111.54588599   175.00906989
 H     33  24  22     2.067199607429   111.21844800   296.43181674
 C     24  22  20     2.874646865388   108.61483804   208.51604718
 H     37  24  22     2.068695093842   110.62340530   173.96790654
 H     37  24  22     2.065465798801   109.79091693   293.32499719
 H     37  24  22     2.061960765652   111.24235407    52.91543337
 N      4   3   2     2.790965559201   125.35747371   185.24541585
 S     17  15  14     3.213579492163   112.54574837   359.90868259
 H     11   3   2     2.267062807549   121.67564716   117.79703568
 C     41   4   3     2.859784374055   118.78672281   220.26975660
 C     41   4   3     2.874948978154   117.70193333    72.66272203
 C     44  41   4     2.972234071424   111.60726083   265.99534031
 C     44  41   4     2.942242726686   110.00025208   145.25256223
 C     44  41   4     2.955107442141   115.19104495    29.22189602
 C     46  44  41     2.902105875967   113.85973537   339.30546957
 H     46  44  41     2.102961391299   108.66063545   216.11094500
 H     46  44  41     2.098759742238   113.60244896   101.01697579
 C     49  46  44     2.861884736679   109.35699657   322.28780221
 C     45  41   4     2.952417791471   111.96647614     4.55531182
 C     45  41   4     2.935241351714   113.56692950   242.85058642
 H     52  49  46     2.102101056080   111.25947745   190.44832152
 H     52  49  46     2.089225170123   106.63056388   303.11180772
 H     49  46  44     2.100007200506   108.98736010   199.21109404
 H     49  46  44     2.095728434712   110.71112896    81.44281743
 H     53  45  41     2.100706961598   111.00960342   177.70561447
 H     53  45  41     2.096387649683   111.78086152    57.80551004
 H     53  45  41     2.085792896313   112.65491653   295.77193408
 H     54  45  41     2.101270971252   109.99848966   181.48249921
 H     54  45  41     2.056271640435   114.96276315    62.06789633
 H     54  45  41     2.079949582442   113.58150813   300.66646987
 H     47  44  41     2.068446568754   115.66772058    66.92268764
 H     47  44  41     2.076390298365   110.70231527   303.94634085
 H     47  44  41     2.101724032186   111.02370080   184.58562246
 H     48  44  41     2.080977303791   115.94868918   293.96774087
 H     48  44  41     2.101605109321   110.34833416   176.14759127
 H     48  44  41     2.065502727748   112.09046874    56.77652426

---------------------
BASIS SET INFORMATION
---------------------
There are 6 groups of distinct atoms

 Group   1 Type C   : 10s4p1d contracted to 3s2p1d pattern {631/31/1}
 Group   2 Type H   : 4s1p contracted to 2s1p pattern {31/1}
 Group   3 Type B   : 10s4p1d contracted to 3s2p1d pattern {631/31/1}
 Group   4 Type O   : 10s4p1d contracted to 3s2p1d pattern {631/31/1}
 Group   5 Type N   : 10s4p1d contracted to 3s2p1d pattern {631/31/1}
 Group   6 Type S   : 16s10p1d contracted to 4s3p1d pattern {6631/631/1}

Atom   0C    basis set group =>   1
Atom   1C    basis set group =>   1
Atom   2C    basis set group =>   1
Atom   3C    basis set group =>   1
Atom   4C    basis set group =>   1
Atom   5C    basis set group =>   1
Atom   6H    basis set group =>   2
Atom   7H    basis set group =>   2
Atom   8H    basis set group =>   2
Atom   9H    basis set group =>   2
Atom  10B    basis set group =>   3
Atom  11H    basis set group =>   2
Atom  12C    basis set group =>   1
Atom  13C    basis set group =>   1
Atom  14C    basis set group =>   1
Atom  15H    basis set group =>   2
Atom  16C    basis set group =>   1
Atom  17H    basis set group =>   2
Atom  18H    basis set group =>   2
Atom  19B    basis set group =>   3
Atom  20O    basis set group =>   4
Atom  21O    basis set group =>   4
Atom  22C    basis set group =>   1
Atom  23C    basis set group =>   1
Atom  24C    basis set group =>   1
Atom  25H    basis set group =>   2
Atom  26H    basis set group =>   2
Atom  27H    basis set group =>   2
Atom  28C    basis set group =>   1
Atom  29H    basis set group =>   2
Atom  30H    basis set group =>   2
Atom  31H    basis set group =>   2
Atom  32C    basis set group =>   1
Atom  33H    basis set group =>   2
Atom  34H    basis set group =>   2
Atom  35H    basis set group =>   2
Atom  36C    basis set group =>   1
Atom  37H    basis set group =>   2
Atom  38H    basis set group =>   2
Atom  39H    basis set group =>   2
Atom  40N    basis set group =>   5
Atom  41S    basis set group =>   6
Atom  42H    basis set group =>   2
Atom  43C    basis set group =>   1
Atom  44C    basis set group =>   1
Atom  45C    basis set group =>   1
Atom  46C    basis set group =>   1
Atom  47C    basis set group =>   1
Atom  48C    basis set group =>   1
Atom  49H    basis set group =>   2
Atom  50H    basis set group =>   2
Atom  51C    basis set group =>   1
Atom  52C    basis set group =>   1
Atom  53C    basis set group =>   1
Atom  54H    basis set group =>   2
Atom  55H    basis set group =>   2
Atom  56H    basis set group =>   2
Atom  57H    basis set group =>   2
Atom  58H    basis set group =>   2
Atom  59H    basis set group =>   2
Atom  60H    basis set group =>   2
Atom  61H    basis set group =>   2
Atom  62H    basis set group =>   2
Atom  63H    basis set group =>   2
Atom  64H    basis set group =>   2
Atom  65H    basis set group =>   2
Atom  66H    basis set group =>   2
Atom  67H    basis set group =>   2
Atom  68H    basis set group =>   2
Atom  69H    basis set group =>   2
---------------------------------
AUXILIARY/J BASIS SET INFORMATION
---------------------------------
There are 6 groups of distinct atoms

 Group   1 Type C   : 12s5p4d2f1g contracted to 6s4p3d1f1g pattern {711111/2111/211/2/1}
 Group   2 Type H   : 5s2p1d contracted to 3s1p1d pattern {311/2/1}
 Group   3 Type B   : 12s5p4d2f1g contracted to 6s4p3d1f1g pattern {711111/2111/211/2/1}
 Group   4 Type O   : 12s5p4d2f1g contracted to 6s4p3d1f1g pattern {711111/2111/211/2/1}
 Group   5 Type N   : 12s5p4d2f1g contracted to 6s4p3d1f1g pattern {711111/2111/211/2/1}
 Group   6 Type S   : 14s5p5d2f1g contracted to 8s4p3d1f1g pattern {71111111/2111/311/2/1}

Atom   0C    basis set group =>   1
Atom   1C    basis set group =>   1
Atom   2C    basis set group =>   1
Atom   3C    basis set group =>   1
Atom   4C    basis set group =>   1
Atom   5C    basis set group =>   1
Atom   6H    basis set group =>   2
Atom   7H    basis set group =>   2
Atom   8H    basis set group =>   2
Atom   9H    basis set group =>   2
Atom  10B    basis set group =>   3
Atom  11H    basis set group =>   2
Atom  12C    basis set group =>   1
Atom  13C    basis set group =>   1
Atom  14C    basis set group =>   1
Atom  15H    basis set group =>   2
Atom  16C    basis set group =>   1
Atom  17H    basis set group =>   2
Atom  18H    basis set group =>   2
Atom  19B    basis set group =>   3
Atom  20O    basis set group =>   4
Atom  21O    basis set group =>   4
Atom  22C    basis set group =>   1
Atom  23C    basis set group =>   1
Atom  24C    basis set group =>   1
Atom  25H    basis set group =>   2
Atom  26H    basis set group =>   2
Atom  27H    basis set group =>   2
Atom  28C    basis set group =>   1
Atom  29H    basis set group =>   2
Atom  30H    basis set group =>   2
Atom  31H    basis set group =>   2
Atom  32C    basis set group =>   1
Atom  33H    basis set group =>   2
Atom  34H    basis set group =>   2
Atom  35H    basis set group =>   2
Atom  36C    basis set group =>   1
Atom  37H    basis set group =>   2
Atom  38H    basis set group =>   2
Atom  39H    basis set group =>   2
Atom  40N    basis set group =>   5
Atom  41S    basis set group =>   6
Atom  42H    basis set group =>   2
Atom  43C    basis set group =>   1
Atom  44C    basis set group =>   1
Atom  45C    basis set group =>   1
Atom  46C    basis set group =>   1
Atom  47C    basis set group =>   1
Atom  48C    basis set group =>   1
Atom  49H    basis set group =>   2
Atom  50H    basis set group =>   2
Atom  51C    basis set group =>   1
Atom  52C    basis set group =>   1
Atom  53C    basis set group =>   1
Atom  54H    basis set group =>   2
Atom  55H    basis set group =>   2
Atom  56H    basis set group =>   2
Atom  57H    basis set group =>   2
Atom  58H    basis set group =>   2
Atom  59H    basis set group =>   2
Atom  60H    basis set group =>   2
Atom  61H    basis set group =>   2
Atom  62H    basis set group =>   2
Atom  63H    basis set group =>   2
Atom  64H    basis set group =>   2
Atom  65H    basis set group =>   2
Atom  66H    basis set group =>   2
Atom  67H    basis set group =>   2
Atom  68H    basis set group =>   2
Atom  69H    basis set group =>   2
------------------------------------------------------------------------------
                             ORCA STARTUP CALCULATIONS
                           -- RI-GTO INTEGRALS CHOSEN --
------------------------------------------------------------------------------
------------------------------------------------------------------------------
                   ___                                                        
                  /   \      - P O W E R E D   B Y -                         
                 /     \                                                     
                 |  |  |   _    _      __       _____    __    __             
                 |  |  |  | |  | |    /  \     |  _  \  |  |  /  |          
                  \  \/   | |  | |   /    \    | | | |  |  | /  /          
                 / \  \   | |__| |  /  /\  \   | |_| |  |  |/  /          
                |  |  |   |  __  | /  /__\  \  |    /   |      \           
                |  |  |   | |  | | |   __   |  |    \   |  |\   \          
                \     /   | |  | | |  |  |  |  | |\  \  |  | \   \       
                 \___/    |_|  |_| |__|  |__|  |_| \__\ |__|  \__/        
                                                                              
                      - O R C A' S   B I G   F R I E N D -                    
                                      &                                       
                       - I N T E G R A L  F E E D E R -                       
                                                                              
 v1 FN, 2020, v2 2021, v3 2022-2024                                           
------------------------------------------------------------------------------


----------------------
SHARK INTEGRAL PACKAGE
----------------------

Number of atoms                             ...     70
Number of basis functions                   ...    633
Number of shells                            ...    305
Maximum angular momentum                    ...      2
Integral batch strategy                     ... SHARK/LIBINT Hybrid
RI-J (if used) integral strategy            ... SPLIT-RIJ (Revised 2003 algorithm where possible)
Printlevel                                  ...      1
Contraction scheme used                     ... SEGMENTED contraction
Prescreening option                         ... SCHWARTZ
   Thresh                                   ... 2.500e-11
   Tcut                                     ... 2.500e-12
   Tpresel                                  ... 2.500e-12 
Coulomb Range Separation                    ... NOT USED
Exchange Range Separation                   ... Long Range
   Mu parameter                             ... 2.500e-01
   Scaling (regular/separated)              ... 1.957e-01 8.043e-01
Robust (split-)RI terms used:
  metric    (central integrals)             ... YES
  density   (r.h.s.  integrals)             ... YES
  potential (l.h.s.  integrals)             ... YES
Multipole approximations                    ... NOT USED
Finite Nucleus Model                        ... NOT USED
CABS basis                                  ... NOT available
Auxiliary Coulomb fitting basis             ... AVAILABLE
   # of basis functions in Aux-J            ...   1950
   # of shells in Aux-J                     ...    662
   Maximum angular momentum in Aux-J        ...      4
Auxiliary J/K fitting basis                 ... NOT available
Auxiliary Correlation fitting basis         ... NOT available
Auxiliary 'external' fitting basis          ... NOT available

Checking pre-screening integrals            ... done (  0.0 sec) Dimension = 305
   => SHARK Basis and OBASIS are compatible. Storing Pre-screening
Shell pair information
Shell pair cut-off parameter TPreSel        ...   2.5e-12
Total number of shell pairs                 ...     46665
Shell pairs after pre-screening             ...     29662
Total number of primitive shell pairs       ...    226926
Primitive shell pairs kept                  ...     80089
          la=0 lb=0:   9585 shell pairs
          la=1 lb=0:  11268 shell pairs
          la=1 lb=1:   3395 shell pairs
          la=2 lb=0:   3232 shell pairs
          la=2 lb=1:   1899 shell pairs
          la=2 lb=2:    283 shell pairs

Checking whether 4 symmetric matrices of dimension 633 fit in memory
:Max Core in MB      =   5120.00
 MB in use           =     41.33
 MB left             =   5078.67
 MB needed           =      6.12
 Data fit in memory  = YES
Calculating RI/J V-Matrix + Cholesky decomp.... done (  0.6 sec)
Calculating Nuclear repulsion               ... done (  0.0 sec) ENN=   3630.700355183932 Eh

Diagonalization of the overlap matrix:
Smallest eigenvalue                        ... 4.015e-04
Time for diagonalization                   ...    0.091 sec
Threshold for overlap eigenvalues          ... 1.000e-07
Number of eigenvalues below threshold      ... 0
Time for construction of square roots      ...    0.027 sec
Total time needed                          ...    0.120 sec

-------------------
DFT GRID GENERATION
-------------------

General Integration Accuracy     IntAcc      ... 4.388
Radial Grid Type                 RadialGrid  ... OptM3 with GC (2021)
Angular Grid (max. ang.)         AngularGrid ... 4 (Lebedev-302)
Angular grid pruning method      GridPruning ... 4 (adaptive)
Weight generation scheme         WeightScheme... mBecke (2022)
Basis function cutoff            BFCut       ... 1.0000e-11
Integration weight cutoff        WCut        ... 1.0000e-14
Partially contracted basis set               ... off
Rotationally invariant grid construction     ... off
Angular grids for H and He will be reduced by one unit

Total number of grid points                  ...   305614
Total number of batches                      ...     4807
Average number of points per batch           ...       63
Average number of grid points per atom       ...     4366

--------------------
COSX GRID GENERATION
--------------------

GRIDX 1
-------
General Integration Accuracy     IntAcc      ... 3.816
Radial Grid Type                 RadialGrid  ... OptM3 with GC (2021)
Angular Grid (max. ang.)         AngularGrid ... 1 (Lebedev-50)
Angular grid pruning method      GridPruning ... 4 (adaptive)
Weight generation scheme         WeightScheme... mBecke (2022)
[...]
 H     52  49  46     1.098651770233   111.40308160   189.56322310
 H     52  49  46     1.099192703728   107.80738748   303.68834148
 H     49  46  44     1.098495966771   109.44704067   199.49385499
 H     49  46  44     1.099488504728   110.18981665    82.21020391
 H     53  45  41     1.097373454353   110.05540312   177.69520696
 H     53  45  41     1.096747062999   111.84115381    57.90123234
 H     53  45  41     1.093556492801   112.48864975   296.15999695
 H     54  45  41     1.100004624473   109.71286986   181.41170412
 H     54  45  41     1.090363493442   113.87938227    61.97949781
 H     54  45  41     1.094357698544   113.03995748   300.68375189
 H     47  44  41     1.092431242801   114.78670144    67.37152241
 H     47  44  41     1.092390976194   110.53257420   304.80694392
 H     47  44  41     1.099301583883   110.37553703   185.59226642
 H     48  44  41     1.093282689548   115.19626686   293.89056501
 H     48  44  41     1.098157853602   109.26692433   175.71741530
 H     48  44  41     1.090588952163   111.85846437    56.74941545

---------------------------
INTERNAL COORDINATES (A.U.)
---------------------------
 C      0   0   0     0.000000000000     0.00000000     0.00000000
 C      1   0   0     2.625550884903     0.00000000     0.00000000
 C      2   1   0     2.647966350064   122.86682015     0.00000000
 C      3   2   1     2.674184663951   117.52384052   358.43207334
 C      4   3   2     2.658414718898   119.09244772     1.49834168
 C      5   4   3     2.614248638380   121.75772802   359.69766315
 H      1   2   3     2.052650024762   120.24078880   180.93034635
 H      2   1   3     2.054908406615   118.63885293   177.42477061
 H      5   4   3     2.045964454001   120.71857997   181.43164715
 H      6   5   4     2.052828959500   120.20193407   180.28081135
 B      3   2   1     3.024857412247   118.46317053   176.63919300
 H     11   3   2     2.417853733300   104.77135809     5.86723685
 C     11   3   2     3.189969885353   113.82715062   251.02850459
 C     13  11   3     2.623906484642   124.71287600     8.24887360
 C     14  13  11     2.659563289485   114.44794273   211.25252501
 H     14  13  11     2.057677212834   123.13008164    34.19027828
 C     15  14  13     2.599213727855   111.60328489     0.72144281
 H     15  14  13     2.046436009398   124.65265949   180.82988040
 H     17  15  14     2.046286810558   127.09396863   179.79402748
 B     12  11   3     2.604121129570    89.85185565   242.26779499
 O     20  12  11     2.640468586751   109.16644338   239.38637913
 O     20  12  11     2.647658088744   105.70927745   118.65585078
 C     21  20  12     2.716682356040   106.23573228   251.58726562
 C     22  20  12     2.716135918605   105.50535925   133.89913911
 C     23  21  20     2.891849791939   107.72098489    92.87018447
 H     25  23  21     2.065300017962   108.75828480    55.26256727
 H     25  23  21     2.067273577138   111.75863129   175.01125336
 H     25  23  21     2.067439286161   111.08125228   296.33926006
 C     23  21  20     2.876018834071   108.59802719   212.51430271
 H     29  23  21     2.065827910162   109.84030492   292.87460307
 H     29  23  21     2.062310197642   111.16299098    52.38336289
 H     29  23  21     2.069310446342   110.69222211   173.54153664
 C     24  22  20     2.894477671924   107.96649142    88.95669608
 H     33  24  22     2.066229589515   108.71354395    55.35935700
 H     33  24  22     2.067080688299   111.59494632   174.93823597
 H     33  24  22     2.067663036351   111.24776435   296.37249541
 C     24  22  20     2.875215411641   108.52982335   208.57190739
 H     37  24  22     2.069164339859   110.70128137   173.98088454
 H     37  24  22     2.065809966389   109.74742617   293.32347245
 H     37  24  22     2.062244383955   111.24237735    52.81260331
 N      4   3   2     2.740776613935   124.64918205   186.89370547
 S     17  15  14     3.208471963463   112.47234526   359.76769279
 H     11   3   2     2.263207962070   121.45351965   118.58793946
 C     41   4   3     2.822295252467   118.15579083   219.64110736
 C     41   4   3     2.842325361383   117.20564985    73.25288662
 C     44  41   4     2.950713409355   112.39796331   267.94427077
 C     44  41   4     2.919281149541   109.28829707   147.00656652
 C     44  41   4     2.915124048720   113.84848906    30.82277144
 C     46  44  41     2.889657662690   113.08278268   339.27480454
 H     46  44  41     2.080371566759   108.67385143   216.59725168
 H     46  44  41     2.080927888991   112.63809659   101.64871879
 C     49  46  44     2.871430008707   109.24533699   322.71576299
 C     45  41   4     2.918304988774   111.38261700     3.62251429
 C     45  41   4     2.911457333654   113.26042327   242.31690877
 H     52  49  46     2.076150962288   111.40308160   189.56322310
 H     52  49  46     2.077173178450   107.80738748   303.68834148
 H     49  46  44     2.075856536414   109.44704067   199.49385499
 H     49  46  44     2.077732161331   110.18981665    82.21020391
 H     53  45  41     2.073735295362   110.05540312   177.69520696
 H     53  45  41     2.072551587251   111.84115381    57.90123234
 H     53  45  41     2.066522283366   112.48864975   296.15999695
 H     54  45  41     2.078707486301   109.71286986   181.41170412
 H     54  45  41     2.060488389032   113.87938227    61.97949781
 H     54  45  41     2.068036342796   113.03995748   300.68375189
 H     47  44  41     2.064395869033   114.78670144    67.37152241
 H     47  44  41     2.064319776173   110.53257420   304.80694392
 H     47  44  41     2.077378932124   110.37553703   185.59226642
 H     48  44  41     2.066004870203   115.19626686   293.89056501
 H     48  44  41     2.075217595122   109.26692433   175.71741530
 H     48  44  41     2.060914444268   111.85846437    56.74941545

------------------------------------------------------------------------------
                   ___                                                        
                  /   \      - P O W E R E D   B Y -                         
                 /     \                                                     
                 |  |  |   _    _      __       _____    __    __             
                 |  |  |  | |  | |    /  \     |  _  \  |  |  /  |          
                  \  \/   | |  | |   /    \    | | | |  |  | /  /          
                 / \  \   | |__| |  /  /\  \   | |_| |  |  |/  /          
                |  |  |   |  __  | /  /__\  \  |    /   |      \           
                |  |  |   | |  | | |   __   |  |    \   |  |\   \          
                \     /   | |  | | |  |  |  |  | |\  \  |  | \   \       
                 \___/    |_|  |_| |__|  |__|  |_| \__\ |__|  \__/        
                                                                              
                      - O R C A' S   B I G   F R I E N D -                    
                                      &                                       
                       - I N T E G R A L  F E E D E R -                       
                                                                              
 v1 FN, 2020, v2 2021, v3 2022-2024                                           
------------------------------------------------------------------------------


----------------------
SHARK INTEGRAL PACKAGE
----------------------

Number of atoms                             ...     70
Number of basis functions                   ...    633
Number of shells                            ...    305
Maximum angular momentum                    ...      2
Integral batch strategy                     ... SHARK/LIBINT Hybrid
RI-J (if used) integral strategy            ... SPLIT-RIJ (Revised 2003 algorithm where possible)
Printlevel                                  ...      1
Contraction scheme used                     ... SEGMENTED contraction
Prescreening option                         ... SCHWARTZ
   Thresh                                   ... 2.500e-11
   Tcut                                     ... 2.500e-12
   Tpresel                                  ... 2.500e-12 
Coulomb Range Separation                    ... NOT USED
Exchange Range Separation                   ... Long Range
   Mu parameter                             ... 2.500e-01
   Scaling (regular/separated)              ... 1.957e-01 8.043e-01
Robust (split-)RI terms used:
  metric    (central integrals)             ... YES
  density   (r.h.s.  integrals)             ... YES
  potential (l.h.s.  integrals)             ... YES
Multipole approximations                    ... NOT USED
Finite Nucleus Model                        ... NOT USED
CABS basis                                  ... NOT available
Auxiliary Coulomb fitting basis             ... AVAILABLE
   # of basis functions in Aux-J            ...   1950
   # of shells in Aux-J                     ...    662
   Maximum angular momentum in Aux-J        ...      4
Auxiliary J/K fitting basis                 ... NOT available
Auxiliary Correlation fitting basis         ... NOT available
Auxiliary 'external' fitting basis          ... NOT available

Checking pre-screening integrals            ... done (  0.0 sec) Dimension = 305
   => SHARK Basis and OBASIS are compatible. Storing Pre-screening
Shell pair information
Shell pair cut-off parameter TPreSel        ...   2.5e-12
Total number of shell pairs                 ...     46665
Shell pairs after pre-screening             ...     29417
Total number of primitive shell pairs       ...    226926
Primitive shell pairs kept                  ...     79456
          la=0 lb=0:   9513 shell pairs
          la=1 lb=0:  11175 shell pairs
          la=1 lb=1:   3367 shell pairs
          la=2 lb=0:   3195 shell pairs
          la=2 lb=1:   1886 shell pairs
          la=2 lb=2:    281 shell pairs

Checking whether 4 symmetric matrices of dimension 633 fit in memory
:Max Core in MB      =   5120.00
 MB in use           =     44.11
 MB left             =   5075.89
 MB needed           =      6.12
 Data fit in memory  = YES
Calculating RI/J V-Matrix + Cholesky decomp.... done (  0.4 sec)
Calculating Nuclear repulsion               ... done (  0.0 sec) ENN=   3613.247324094991 Eh

Diagonalization of the overlap matrix:
Smallest eigenvalue                        ... 4.033e-04
Time for diagonalization                   ...    0.126 sec
Threshold for overlap eigenvalues          ... 1.000e-07
Number of eigenvalues below threshold      ... 0
Time for construction of square roots      ...    0.048 sec
Total time needed                          ...    0.176 sec

-------------------
DFT GRID GENERATION
-------------------

General Integration Accuracy     IntAcc      ... 4.388
Radial Grid Type                 RadialGrid  ... OptM3 with GC (2021)
Angular Grid (max. ang.)         AngularGrid ... 4 (Lebedev-302)
Angular grid pruning method      GridPruning ... 4 (adaptive)
Weight generation scheme         WeightScheme... mBecke (2022)
Basis function cutoff            BFCut       ... 1.0000e-11
Integration weight cutoff        WCut        ... 1.0000e-14
Partially contracted basis set               ... off
Rotationally invariant grid construction     ... off
Angular grids for H and He will be reduced by one unit

Total number of grid points                  ...   305590
Total number of batches                      ...     4810
Average number of points per batch           ...       63
Average number of grid points per atom       ...     4366

--------------------
COSX GRID GENERATION
--------------------

GRIDX 1
-------
General Integration Accuracy     IntAcc      ... 3.816
Radial Grid Type                 RadialGrid  ... OptM3 with GC (2021)
Angular Grid (max. ang.)         AngularGrid ... 1 (Lebedev-50)
Angular grid pruning method      GridPruning ... 4 (adaptive)
Weight generation scheme         WeightScheme... mBecke (2022)
Basis function cutoff            BFCut       ... 1.0000e-11
Integration weight cutoff        WCut        ... 1.0000e-14
Partially contracted basis set               ... on
Rotationally invariant grid construction     ... off
Angular grids for H and He will be reduced by one unit

Total number of grid points                  ...    39785
Total number of batches                      ...      349
Average number of points per batch           ...      113
Average number of grid points per atom       ...      568
UseSFitting                                  ... on

GRIDX 2
-------
General Integration Accuracy     IntAcc      ... 4.020
Radial Grid Type                 RadialGrid  ... OptM3 with GC (2021)
Angular Grid (max. ang.)         AngularGrid ... 2 (Lebedev-110)
Angular grid pruning method      GridPruning ... 4 (adaptive)
Weight generation scheme         WeightScheme... mBecke (2022)
Basis function cutoff            BFCut       ... 1.0000e-11
Integration weight cutoff        WCut        ... 1.0000e-14
Partially contracted basis set               ... on
Rotationally invariant grid construction     ... off
Angular grids for H and He will be reduced by one unit

Total number of grid points                  ...    80549
Total number of batches                      ...      667
Average number of points per batch           ...      120
Average number of grid points per atom       ...     1151
UseSFitting                                  ... on

GRIDX 3
-------
General Integration Accuracy     IntAcc      ... 4.338
Radial Grid Type                 RadialGrid  ... OptM3 with GC (2021)
Angular Grid (max. ang.)         AngularGrid ... 3 (Lebedev-194)
Angular grid pruning method      GridPruning ... 4 (adaptive)
Weight generation scheme         WeightScheme... mBecke (2022)
Basis function cutoff            BFCut       ... 1.0000e-11
Integration weight cutoff        WCut        ... 1.0000e-14
Partially contracted basis set               ... on
Rotationally invariant grid construction     ... off
Angular grids for H and He will be reduced by one unit

Total number of grid points                  ...   174905
Total number of batches                      ...     1405
Average number of points per batch           ...      124
Average number of grid points per atom       ...     2499
UseSFitting                                  ... on
Grids setup in  23.8 sec
Initializing property integral containers    ... done (  0.0 sec)

SHARK setup successfully completed in  25.7 seconds

Maximum memory used throughout the entire STARTUP-calculation: 154.8 MB
Occupation numbers will be reassigned to an Aufbau configuration
             **** ENERGY FILE WAS UPDATED (input.en.tmp) ****
Finished Guess after   0.7 sec
Maximum memory used throughout the entire GUESS-calculation: 75.5 MB
----------------------------------------D-I-I-S--------------------------------------------
Iteration    Energy (Eh)           Delta-E    RMSDP     MaxDP     DIISErr   Damp  Time(sec)
-------------------------------------------------------------------------------------------
               ***  Starting incremental Fock matrix formation  ***
    1    -1628.9528117205632043     0.00e+00  1.33e-04  5.33e-03  3.07e-02  0.700 264.6
    2    -1628.9604665495785412    -7.65e-03  1.24e-04  5.34e-03  2.54e-02  0.700  96.4
                               ***Turning on AO-DIIS***
    3    -1628.9668323641149073    -6.37e-03  1.20e-04  5.47e-03  2.03e-02  0.700  95.6
    4    -1628.9718572561955625    -5.02e-03  3.34e-04  1.54e-02  1.54e-02  0.000  95.9
                              *** Initializing SOSCF ***
---------------------------------------S-O-S-C-F--------------------------------------
Iteration    Energy (Eh)           Delta-E    RMSDP     MaxDP     MaxGrad    Time(sec)
--------------------------------------------------------------------------------------
    5    -1628.9864369381052711    -1.46e-02  4.59e-05  2.14e-03  1.76e-03   104.8
               *** Restarting incremental Fock matrix formation ***
    6    -1628.9865636122226533    -1.27e-04  2.85e-05  1.76e-03  7.69e-04   264.0
    7    -1628.9865948616384230    -3.12e-05  2.26e-05  1.56e-03  2.96e-04   151.8
    8    -1628.9865996654211813    -4.80e-06  6.80e-06  3.27e-04  1.38e-04   146.0
    9    -1628.9866013968144216    -1.73e-06  2.48e-06  1.50e-04  4.29e-05   123.5
   10    -1628.9866014579097282    -6.11e-08  9.37e-07  4.39e-05  3.10e-05   102.7
   11    -1628.9866015191832957    -6.13e-08  3.12e-07  1.86e-05  5.38e-06    82.6
   12    -1628.9866015243665061    -5.18e-09  1.22e-07  5.20e-06  3.12e-06    62.9
                 **** Energy Check signals convergence ****

               *****************************************************
               *                     SUCCESS                       *
               *           SCF CONVERGED AFTER  12 CYCLES          *
               *****************************************************

Recomputing exchange energy using gridx3       ... done (  504.509 sec)
Old exchange energy                            :    -64.550184474 Eh
New exchange energy                            :    -64.550232379 Eh
Exchange energy change after final integration :     -0.000047904 Eh
Total energy after final integration           :  -1628.986649421 Eh
             **** ENERGY FILE WAS UPDATED (input.en.tmp) ****

----------------
TOTAL SCF ENERGY
----------------

Total Energy       :      -1628.98664942139817 Eh          -44326.98027 eV

Components:
Nuclear Repulsion  :       3613.24732409499074 Eh           98321.45825 eV
Electronic Energy  :      -5242.23392561208493 Eh         -142648.43722 eV
One Electron Energy:      -9411.46392818704771 Eh         -256098.95331 eV
Two Electron Energy:       4169.23000257496278 Eh          113450.51608 eV

Virial components:
Potential Energy   :      -3248.48191099375163 Eh          -88395.68675 eV
Kinetic Energy     :       1619.49526157235323 Eh           44068.70648 eV
Virial Ratio       :          2.00586070739091

DFT components:
N(Alpha)           :      119.000246229356 electrons
N(Beta)            :      119.000246229356 electrons
N(Total)           :      238.000492458712 electrons
E(XC)              :     -143.753791230505 Eh       

---------------
SCF CONVERGENCE
---------------

  Last Energy change         ...    5.1832e-09  Tolerance :   1.0000e-08
  Last MAX-Density change    ...    5.2018e-06  Tolerance :   1.0000e-07
  Last RMS-Density change    ...    1.2233e-07  Tolerance :   5.0000e-09
  Last DIIS Error            ...    1.7607e-03  Tolerance :   5.0000e-07
  Last Orbital Gradient      ...    3.1175e-06  Tolerance :   1.0000e-05
  Last Orbital Rotation      ...    7.2538e-06  Tolerance :   1.0000e-05


Total SCF time: 0 days 0 hours 35 min 48 sec 
Finished LeanSCF after 2148.6 sec

Maximum memory used throughout the entire LEANSCF-calculation: 135.3 MB


-------------------------------------------------------------------------------
                          DFT DISPERSION CORRECTION                            
                                                                               
                              DFTD3 V3.1  Rev 1                                
                              USING zero damping                               
-------------------------------------------------------------------------------
-------------------------   ----------------
Dispersion correction           -0.050852474
-------------------------   ----------------


-------------------------   --------------------
FINAL SINGLE POINT ENERGY     -1629.037501895724
-------------------------   --------------------

------------------------------------------------------------------------------
                         ORCA SCF GRADIENT CALCULATION
------------------------------------------------------------------------------

Nuc. rep. gradient        (SHARK) ... done (  0.0 sec)
HCore & Overlap gradient  (SHARK) ... done ( 11.3 sec)
Split-RIJ-J gradient      (SHARK) ... done ( 40.2 sec)
