
                                 *****************
                                 * O   R   C   A *
                                 *****************

                                            #,                                       
                                            ###                                      
                                            ####                                     
                                            #####                                    
                                            ######                                   
                                           ########,                                 
                                     ,,################,,,,,                         
                               ,,#################################,,                 
                          ,,##########################################,,             
                       ,#########################################, ''#####,          
                    ,#############################################,,   '####,        
                  ,##################################################,,,,####,       
                ,###########''''           ''''###############################       
              ,#####''   ,,,,##########,,,,          '''####'''          '####       
            ,##' ,,,,###########################,,,                        '##       
           ' ,,###''''                  '''############,,,                           
         ,,##''                                '''############,,,,        ,,,,,,###''
      ,#''                                            '''#######################'''  
     '                                                          ''''####''''         
             ,#######,   #######,   ,#######,      ##                                
            ,#'     '#,  ##    ##  ,#'     '#,    #''#        ,####,    ,#,          
            ##       ##  ##   ,#'  ##            #'  '#       #'       ,# #          
            ##       ##  #######   ##           ,######,      #####,      #          
            '#,     ,#'  ##    ##  '#,     ,#' ,#      #,     #,   #      #          
             '#######'   ##     ##  '#######'  #'      '#     '####' #    #          



                #########################################################
                #                        -***-                          #
                #          Department of theory and spectroscopy        #
                #                                                       #
                #                      Frank Neese                      #
                #                                                       #
                #     Directorship, Architecture, Infrastructure        #
                #                    SHARK, DRIVERS                     #
                #        Core code/Algorithms in most modules           #
                #                                                       #
                #        Max Planck Institute fuer Kohlenforschung      #
                #                Kaiser Wilhelm Platz 1                 #
                #                 D-45470 Muelheim/Ruhr                 #
                #                      Germany                          #
                #                                                       #
                #                  All rights reserved                  #
                #                        -***-                          #
                #########################################################


                         Program Version 6.1.0  -  RELEASE   -
                                (GIT: $679e74b$)
                          ($2025-06-10 18:02:51 +0200$)


 With contributions from (in alphabetic order):
[Max-Planck-Institut fuer Kohlenforschung]                               
  Daniel Aravena         : Magnetic Suceptibility                        
  Michael Atanasov       : Ab Initio Ligand Field Theory (pilot matlab implementation)
  Alexander A. Auer      : GIAO ZORA, VPT2 properties, NMR spectrum      
  Ute Becker             : All parallelization in ORCA, NUMFREQ, NUMCALC 
  Giovanni Bistoni       : ED, misc. LED, open-shell LED, HFLD           
  Dmytro Bykov           : pre 5.0 version of the SCF Hessian            
  Marcos Casanova-Páez   : Triplet and SCS-CIS(D). UHF-(DLPNO)-IP/EA/STEOM-CCSD. UHF-CVS-IP/STEOM-CCSD   
  Vijay G. Chilkuri      : MRCI spin determinant printing, contributions to CSF-ICE 
  Pauline Colinet        : FMM embedding                                 
  Dipayan Datta          : RHF DLPNO-CCSD density                        
  Achintya Kumar Dutta   : EOM-CC, STEOM-CC                              
  Nicolas Foglia         : Exact transition moments, OPA infrastructure, MCD improvements    
  Dmitry Ganyushin       : Spin-Orbit,Spin-Spin,Magnetic field MRCI      
  Miquel Garcia-Rates    : C-PCM and meta-GGA Hessian, CCSD/C-PCM, Gaussian charge scheme 
  Tiago L. C. Gouveia    : GS-ROHF, GS-ROCIS                             
  Yang Guo               : DLPNO-NEVPT2, F12-NEVPT2, CIM, IAO-localization        
  Andreas Hansen         : Spin unrestricted coupled pair/coupled cluster methods 
  Ingolf Harden          : AUTO-CI MPn and infrastructure                
  Benjamin Helmich-Paris : MC-RPA, TRAH-(SCF,CASSCF), AVAS, COSX integrals, SCF dyn. polar., MC-PDFT, srDFT 
  Lee Huntington         : MR-EOM, pCC                                   
  Robert Izsak           : Overlap fitted RIJCOSX, COSX-SCS-MP3, EOM     
  Riya Kayal             : Wick's Theorem for AUTO-CI, AUTO-CI UHF-CCSDT 
  Emily Kempfer          : AUTO-CI RHF CISDT and CCSDT, approximate NEVPT4
  Christian Kollmar      : KDIIS, OOCD, Brueckner-CCSD(T), CCSD density, CASPT2, CASPT2-K, improved NEVPT2 
  Axel Koslowski         : Symmetry handling                             
  Simone Kossmann        : meta-GGA functionals, TD-DFT gradient, OOMP2, (MP2 Hessian; deprecated post 5.0) 
  Lucas Lang             : DCDCAS, Hyperfine gauge corrections, ICE-SOC+SSC
  Marvin Lechner         : AUTO-CI (C++ implementation), FIC-MRCC        
  Spencer Leger          : CASSCF response                               
  Dagmar Lenk            : GEPOL surface, SMD, ORCA-2-JSON               
  Dimitrios Liakos       : Extrapolation schemes; Compound Job, Property file
  Dimitrios Manganas     : Further ROCIS development; embedding schemes. LFT, Crystal Embedding 
  Dimitrios Pantazis     : SARC Basis sets                               
  Anastasios Papadopoulos: AUTO-CI, single reference methods and gradients 
  Taras Petrenko         : pre 6.0 DFT Hessian and TD-DFT gradient,  ECA, NRVS 
  Petra Pikulova         : Analytic Raman intensities                    
  Peter Pinski           : DLPNO-MP2, DLPNO-MP2 Gradient                 
  Shashank Vittal Rao    : ES-AILFT, MagRelax                            
  Christoph Reimann      : Effective Core Potentials                     
  Marius Retegan         : Local ZFS, SOC                                
  Christoph Riplinger    : Optimizer, TS searches, QM/MM, DLPNO-CCSD(T), (RO)-DLPNO pert. Triples 
  Michael Roemelt        : Original ROCIS implementation, recursive CI coupling coefficients
  Masaaki Saitow         : Open-shell DLPNO-CCSD energy and density      
  Barbara Sandhoefer     : DKH picture change effects                    
  Yorick L. A. Schmerwitz: GMF and freeze-and-release deltaSCF, NEB S-IDPP initial path                    
  Kantharuban Sivalingam : CASSCF convergence/infrastructure, NEVPT2, NEVPT3, NEVPT4(SD), FIC-MRCI and CEPA variants
  Bernardo de Souza      : ESD, SOC TD-DFT                               
  Georgi L. Stoychev     : AutoAux, RI-MP2 NMR, DLPNO-MP2 response, X2C  
  Van Anh Tran           : RI-MP2 g-tensors                              
  Willem Van den Heuvel  : Paramagnetic NMR                              
  Zikuan Wang            : NOTCH, Electric field optimization            
  Frank Wennmohs         : Technical directorship and infrastructure     
  Hang Xu                : AUTO-CI-Response properties                   
                                                                         
[FACCTs GmbH]                                                            
  Markus Bursch, Nicolas Foglia, Miquel Garcia-Rates, Ingolf Harden, Hagen Neugebauer, Anastasios Papadopoulos, 
  Christoph Riplinger, Bernardo de Souza, Georgi L. Stoychev                                                    
                                                                 
  APM, various basis sets, CI-OPT, improved COSX, DLPNO-Multilevel,           
  DOCKER, DRACO, updates on ESD, Fragmentator, GOAT, IRC, LR-CPCM, L-BFGS, MBIS, meta-GGA TD-DFT gradient, ML-optimized integration grids, 
  MM, NACMEs, nearIR, NEB, NEB-TS, NL-DFT gradient (VV10), 2- and 3-layer-ONIOM, interface openCOSMO-RS, QMMM,   
  Crystal-QMMM, RESP, rigid body optimization, SF, symmetry and pop. for TD-DFT, various functionals, SOLVATOR                                   
                                                                         
[Other institutions]                                                     
  V. Asgeirsson          : NEB                                           
  Christoph Bannwarth    : sTDA-DFT, sTD-DFT, PBEh-3c, B97-3c, D3        
  Giovanni Bistoni       : ETS/NOCV, ADLD/ADEX, COVALED                  
  Martin Brehm           : Molecular dynamics                            
  Ronald Cardenas        : ETS/NOCV                                      
  Martina Colucci        : COVALED                                       
  Sebastian Ehlert       : rSCAN, r2SCAN, r2SCAN-3c, D4, dhf basis sets  
  Marvin Friede          : D4 for Fr, Ra, Ac-Lr                          
  Lars Goerigk           : TD-DFT with DH, B97 family of functionals     
  Stefan Grimme          : VdW corrections, initial TS optimization, DFT functionals, gCP, sTDA/sTD-DF 
  Waldemar Hujo          : DFT-NL                                        
  H. Jonsson             : NEB                                           
  Holger Kruse           : gCP                                           
  Marcel Mueller         : wB97X-3c, vDZP basis set                      
  Hagen Neugebauer       : wr2SCAN, Native XTB                           
  Gianluca Regni         : ADLD/ADEX                                     
  Tobias Risthaus        : pre 6.0 range-separated hybrid DFT and stability analysis
  Lukas Wittmann         : regularized MP2, r2SCAN double-hybrids, wr2SCAN        
                                                                         
We gratefully acknowledge several colleagues who have allowed us to      
interface, adapt or use parts of their codes:                            
  Ed Valeev, F. Pavosevic, A. Kumar             : LibInt (2-el integral package), F12 methods 
  Garnet Chan, S. Sharma, J. Yang, R. Olivares  : DMRG                   
  Ulf Ekstrom                                   : XCFun DFT Library      
  Mihaly Kallay                                 : mrcc  (arbitrary order and MRCC methods)
  Frank Weinhold                                : gennbo (NPA and NBO analysis)           
  Simon Mueller                                 : openCOSMO-RS                            
  Christopher J. Cramer and Donald G. Truhlar   : smd solvation model                     
  S Lehtola, MJT Oliveira, MAL Marques          : LibXC Library                           
  Liviu Ungur et al                             : ANISO software                          


 Your calculation uses the libint2 library for the computation of 2-el integrals
 For citations please refer to: http://libint.valeyev.net

 Your ORCA version has been built with support for libXC version: 7.0.0
 For citations please refer to: https://libxc.gitlab.io

 This ORCA versions uses:
   CBLAS   interface :  Fast vector & matrix operations
   LAPACKE interface :  Fast linear algebra routines
   SCALAPACK package :  Parallel linear algebra routines
   Shared memory     :  Shared parallel matrices
   BLAS/LAPACK       :  OpenBLAS 0.3.29  USE64BITINT DYNAMIC_ARCH NO_AFFINITY Zen SINGLE_THREADED
        Core in use  :  Zen
   Copyright (c) 2011-2014, The OpenBLAS Project


  ***********************************
  * Starting time: Tue Sep  2 12:43:15 2025
  * Host name:     node066.cluster
  * Process ID:    1310633
  * Working dir.:  /scratch/53719317/_e0ifd0
  ***********************************

NOTE: MaxCore=2048 MB was set to SCF,MP2,MDCI,CIPSI,MRCI,RASCI and CIS
      => If you want to overwrite this, your respective input block should be placed after the MaxCore statement
================================================================================

================================================================================
                                        WARNINGS
                       Please study these warnings very carefully!
================================================================================

WARNING: Gradients needed for Numerical Frequencies
  ===> : Setting RunTyp to EnGrad

WARNING: The environment variable RSH_COMMAND is not set!
  ===> : All Displacements for the Numerical Hessian or Gradient calculation
         will be started on localhost

Using external energy/gradient program given in input:
  "/groups/kemi/jmni/software/orca-external-tools/umaclient.sh"


WARNING: four-center integrals in TRAH must be done with SHARK!
  ===> : Turning Shark on


================================================================================
                                       INPUT FILE
================================================================================
NAME = input.inp
|  1> # Automatically generated ORCA input
|  2> 
|  3> # Number of cores
|  4> %pal nprocs 10 end
|  5> # RAM per core
|  6> %maxcore 2048
|  7> 
|  8> ! ExtOpt 
|  9> ! NumFreq 
| 10> 
| 11> %geom
| 12>   Calc_Hess  true
| 13>   NumHess    true
| 14>   Recalc_Hess 5
| 15>   MaxIter    300
| 16> end
| 17> 
| 18> %method
| 19>     ProgExt "/groups/kemi/jmni/software/orca-external-tools/umaclient.sh"
| 20>     Ext_Params "-b 127.0.0.1:53439"
| 21>     end
| 22>     %output
| 23>     Print[P_EXT_OUT] 1
| 24>     Print[P_EXT_GRAD] 1
| 25>     end
| 26> %Output
| 27>   JSONPropFile True
| 28> End
| 29> 
| 30> 
| 31> *xyz 0 1 
| 32> C        -2.40139100     -1.41855500      1.04028600
| 33> C        -1.13179700     -0.83928200      1.26419300
| 34> C        -0.00084700     -1.57489200      0.86164900
| 35> C        -0.09321600     -2.85625900      0.33462800
| 36> C        -1.34596100     -3.44047000      0.17354400
| 37> C        -2.48074500     -2.71672800      0.51199000
| 38> H         0.98247900     -1.12429600      0.97959400
| 39> H         0.80599000     -3.39428100      0.04637400
| 40> H        -1.44092600     -4.44219500     -0.23689000
| 41> H        -3.46439600     -3.14611100      0.34668900
| 42> N        -3.61141100     -0.70552700      1.30278400
| 43> B        -0.93003800      0.59038400      1.92979300
| 44> H         1.11025800      4.16146800      0.81893700
| 45> H         2.64403500      3.71926400      0.04143700
| 46> H         1.32736600      2.53585000      0.15908000
| 47> C         3.92574000      1.31770000      0.72506300
| 48> H         4.69035400      2.08877000      0.58447900
| 49> H         4.42813400      0.34832900      0.78231100
| 50> H         3.27242000      1.30738000     -0.14902300
| 51> C         4.03147400      1.35140100      3.22909900
| 52> H         4.36949300      0.31198600      3.24201900
| 53> H         4.91197800      2.00037000      3.21068100
| 54> H         3.47636100      1.53820600      4.15289400
| 55> C         0.01306500      0.44616100      3.67687400
| 56> C         0.18996900     -0.86700800      4.10343100
| 57> C        -0.27450300     -1.12420800      5.40642500
| 58> H        -1.84826400      1.26308400      2.28021600
| 59> H        -0.08788400      1.26200500      1.34482600
| 60> C         2.35107900      2.91599400      2.04986300
| 61> C         3.13965500      1.56123400      2.00462700
| 62> O         1.21147600      2.57327000      2.86324300
| 63> O         2.08325300      0.58211100      2.08846600
| 64> B         0.99948300      1.21736900      2.68353800
| 65> C         3.09006500      4.06265700      2.72438200
| 66> H         2.46305500      4.95809900      2.71666700
| 67> H         3.32765500      3.82664300      3.76296400
| 68> H         4.01871100      4.29286400      2.19192600
| 69> C         1.83346500      3.35410200      0.67873200
| 70> H         0.63584100     -1.61673700      3.45989000
| 71> C        -0.79195200      0.00914500      5.98923600
| 72> H        -0.23844700     -2.09074700      5.89313300
| 73> H        -1.22214900      0.09320500      6.97950400
| 74> S        -0.71927300      1.36380500      4.96958300
| 75> C        -4.21988100      0.08217200      0.20107000
| 76> C        -4.36727900     -1.01919200      2.52983000
| 77> C        -5.27126700      0.18374600      2.84334700
| 78> C        -3.39363900     -1.18216700      3.70377100
| 79> C        -5.20058200     -2.31983900      2.44369700
| 80> C        -6.26168800      0.52372700      1.72032800
| 81> H        -4.60961700      1.03709900      3.03036800
| 82> H        -5.80790800     -0.00666900      3.78000400
| 83> C        -5.75265400      0.07544000      0.34425600
| 84> H        -6.44805200      1.60313000      1.72184600
| 85> H        -7.23125500      0.04998800      1.91010200
| 86> C        -3.89415500     -0.51879000     -1.17638700
| 87> C        -3.70766900      1.53637000      0.20048600
| 88> H        -6.17336400      0.71547300     -0.43946700
| 89> H        -6.10556000     -0.93818500      0.12603800
| 90> H        -4.26274800     -1.54510700     -1.26340200
| 91> H        -2.81912400     -0.52700800     -1.37405400
| 92> H        -4.37543200      0.08137800     -1.95553200
| 93> H        -4.18776700      2.11239100     -0.59922200
| 94> H        -2.62722700      1.56359400      0.03226200
| 95> H        -3.90336000      2.03726900      1.15188100
| 96> H        -5.89510000     -2.31826800      1.60061300
| 97> H        -5.78453600     -2.45980000      3.36056500
| 98> H        -4.54403100     -3.18857400      2.33739000
| 99> H        -2.70401700     -2.01536600      3.54280300
|100> H        -3.94934400     -1.37807200      4.62691700
|101> H        -2.80636800     -0.27152100      3.83843200
|102> *
|103> 
|104> 
|105>                          ****END OF INPUT****
================================================================================

                     *******************************
                     * Energy+Gradient Calculation *
                     *******************************

---------------------------------
CARTESIAN COORDINATES (ANGSTROEM)
---------------------------------
  C     -2.401391   -1.418555    1.040286
  C     -1.131797   -0.839282    1.264193
  C     -0.000847   -1.574892    0.861649
  C     -0.093216   -2.856259    0.334628
  C     -1.345961   -3.440470    0.173544
  C     -2.480745   -2.716728    0.511990
  H      0.982479   -1.124296    0.979594
  H      0.805990   -3.394281    0.046374
  H     -1.440926   -4.442195   -0.236890
  H     -3.464396   -3.146111    0.346689
  N     -3.611411   -0.705527    1.302784
  B     -0.930038    0.590384    1.929793
  H      1.110258    4.161468    0.818937
  H      2.644035    3.719264    0.041437
  H      1.327366    2.535850    0.159080
  C      3.925740    1.317700    0.725063
  H      4.690354    2.088770    0.584479
  H      4.428134    0.348329    0.782311
  H      3.272420    1.307380   -0.149023
  C      4.031474    1.351401    3.229099
  H      4.369493    0.311986    3.242019
  H      4.911978    2.000370    3.210681
  H      3.476361    1.538206    4.152894
  C      0.013065    0.446161    3.676874
  C      0.189969   -0.867008    4.103431
  C     -0.274503   -1.124208    5.406425
  H     -1.848264    1.263084    2.280216
  H     -0.087884    1.262005    1.344826
  C      2.351079    2.915994    2.049863
  C      3.139655    1.561234    2.004627
  O      1.211476    2.573270    2.863243
  O      2.083253    0.582111    2.088466
  B      0.999483    1.217369    2.683538
  C      3.090065    4.062657    2.724382
  H      2.463055    4.958099    2.716667
  H      3.327655    3.826643    3.762964
  H      4.018711    4.292864    2.191926
  C      1.833465    3.354102    0.678732
  H      0.635841   -1.616737    3.459890
  C     -0.791952    0.009145    5.989236
  H     -0.238447   -2.090747    5.893133
  H     -1.222149    0.093205    6.979504
  S     -0.719273    1.363805    4.969583
  C     -4.219881    0.082172    0.201070
  C     -4.367279   -1.019192    2.529830
  C     -5.271267    0.183746    2.843347
  C     -3.393639   -1.182167    3.703771
  C     -5.200582   -2.319839    2.443697
  C     -6.261688    0.523727    1.720328
  H     -4.609617    1.037099    3.030368
  H     -5.807908   -0.006669    3.780004
  C     -5.752654    0.075440    0.344256
  H     -6.448052    1.603130    1.721846
  H     -7.231255    0.049988    1.910102
  C     -3.894155   -0.518790   -1.176387
  C     -3.707669    1.536370    0.200486
  H     -6.173364    0.715473   -0.439467
  H     -6.105560   -0.938185    0.126038
  H     -4.262748   -1.545107   -1.263402
  H     -2.819124   -0.527008   -1.374054
  H     -4.375432    0.081378   -1.955532
  H     -4.187767    2.112391   -0.599222
  H     -2.627227    1.563594    0.032262
  H     -3.903360    2.037269    1.151881
  H     -5.895100   -2.318268    1.600613
  H     -5.784536   -2.459800    3.360565
  H     -4.544031   -3.188574    2.337390
  H     -2.704017   -2.015366    3.542803
  H     -3.949344   -1.378072    4.626917
  H     -2.806368   -0.271521    3.838432

----------------------------
CARTESIAN COORDINATES (A.U.)
----------------------------
  NO LB      ZA    FRAG     MASS         X           Y           Z
   0 C     6.0000    0    12.011   -4.537971   -2.680680    1.965856
   1 C     6.0000    0    12.011   -2.138786   -1.586013    2.388979
   2 C     6.0000    0    12.011   -0.001601   -2.976115    1.628281
   3 C     6.0000    0    12.011   -0.176153   -5.397547    0.632355
   4 C     6.0000    0    12.011   -2.543498   -6.501546    0.327951
   5 C     6.0000    0    12.011   -4.687929   -5.133872    0.967521
   6 H     1.0000    0     1.008    1.856616   -2.124612    1.851164
   7 H     1.0000    0     1.008    1.523100   -6.414262    0.087634
   8 H     1.0000    0     1.008   -2.722956   -8.394532   -0.447657
   9 H     1.0000    0     1.008   -6.546760   -5.945288    0.655147
  10 N     7.0000    0    14.007   -6.824578   -1.333253    2.461905
  11 B     5.0000    0    10.810   -1.757517    1.115664    3.646780
  12 H     1.0000    0     1.008    2.098084    7.864035    1.547567
  13 H     1.0000    0     1.008    4.996502    7.028390    0.078305
  14 H     1.0000    0     1.008    2.508358    4.792062    0.300618
  15 C     6.0000    0    12.011    7.418573    2.490092    1.370170
  16 H     1.0000    0     1.008    8.863485    3.947203    1.104505
  17 H     1.0000    0     1.008    8.367961    0.658246    1.478354
  18 H     1.0000    0     1.008    6.183978    2.470590   -0.281613
  19 C     6.0000    0    12.011    7.618382    2.553778    6.102113
  20 H     1.0000    0     1.008    8.257145    0.589568    6.126528
  21 H     1.0000    0     1.008    9.282293    3.780151    6.067308
  22 H     1.0000    0     1.008    6.569370    2.906788    7.847832
  23 C     6.0000    0    12.011    0.024689    0.843122    6.948285
  24 C     6.0000    0    12.011    0.358989   -1.638408    7.754361
  25 C     6.0000    0    12.011   -0.518735   -2.124445   10.216663
  26 H     1.0000    0     1.008   -3.492713    2.386883    4.308984
  27 H     1.0000    0     1.008   -0.166077    2.384844    2.541353
  28 C     6.0000    0    12.011    4.442895    5.510430    3.873680
  29 C     6.0000    0    12.011    5.933088    2.950305    3.788196
  30 O     8.0000    0    15.999    2.289358    4.862776    5.410745
  31 O     8.0000    0    15.999    3.936778    1.100030    3.946629
  32 B     5.0000    0    10.810    1.888749    2.300494    5.071152
  33 C     6.0000    0    12.011    5.839377    7.677309    5.148336
  34 H     1.0000    0     1.008    4.654499    9.369449    5.133757
  35 H     1.0000    0     1.008    6.288357    7.231307    7.110971
  36 H     1.0000    0     1.008    7.594263    8.112337    4.142140
  37 C     6.0000    0    12.011    3.464747    6.338334    1.282618
  38 H     1.0000    0     1.008    1.201565   -3.055190    6.538245
  39 C     6.0000    0    12.011   -1.496572    0.017282   11.318016
  40 H     1.0000    0     1.008   -0.450600   -3.950939   11.136407
  41 H     1.0000    0     1.008   -2.309527    0.176132   13.189351
  42 S    16.0000    0    32.060   -1.359229    2.577218    9.391151
  43 C     6.0000    0    12.011   -7.974419    0.155283    0.379967
  44 C     6.0000    0    12.011   -8.252961   -1.925994    4.780686
  45 C     6.0000    0    12.011   -9.961251    0.347230    5.373147
  46 C     6.0000    0    12.011   -6.413048   -2.233972    6.999113
  47 C     6.0000    0    12.011   -9.827676   -4.383860    4.617918
  48 C     6.0000    0    12.011  -11.832875    0.989701    3.250949
  49 H     1.0000    0     1.008   -8.710914    1.959833    5.726566
  50 H     1.0000    0     1.008  -10.975356   -0.012603    7.143172
  51 C     6.0000    0    12.011  -10.870941    0.142561    0.650550
  52 H     1.0000    0     1.008  -12.185052    3.029477    3.253817
  53 H     1.0000    0     1.008  -13.665092    0.094464    3.609570
  54 C     6.0000    0    12.011   -7.358886   -0.980371   -2.223049
  55 C     6.0000    0    12.011   -7.006479    2.903319    0.378864
  56 H     1.0000    0     1.008  -11.665967    1.352048   -0.830472
  57 H     1.0000    0     1.008  -11.537836   -1.772913    0.238177
  58 H     1.0000    0     1.008   -8.055426   -2.919829   -2.387484
  59 H     1.0000    0     1.008   -5.327372   -0.995901   -2.596586
  60 H     1.0000    0     1.008   -8.268368    0.153782   -3.695420
  61 H     1.0000    0     1.008   -7.913733    3.991840   -1.132365
  62 H     1.0000    0     1.008   -4.964740    2.954764    0.060966
  63 H     1.0000    0     1.008   -7.376281    3.849880    2.176740
  64 H     1.0000    0     1.008  -11.140125   -4.380892    3.024720
  65 H     1.0000    0     1.008  -10.931189   -4.648348    6.350548
  66 H     1.0000    0     1.008   -8.586974   -6.025532    4.417027
  67 H     1.0000    0     1.008   -5.109852   -3.808490    6.694927
  68 H     1.0000    0     1.008   -7.463179   -2.604179    8.743606
  69 H     1.0000    0     1.008   -5.303267   -0.513100    7.253585

--------------------------------
INTERNAL COORDINATES (ANGSTROEM)
--------------------------------
 C      0   0   0     0.000000000000     0.00000000     0.00000000
 C      1   0   0     1.413350797932     0.00000000     0.00000000
 C      2   1   0     1.407910382992   117.52518026     0.00000000
 C      3   2   1     1.388590852372   122.49457575   356.23940014
 C      4   3   2     1.391625158799   119.41962998     1.00210868
 C      5   4   3     1.387833889245   119.26913565     1.60865146
 H      3   2   1     1.088061487471   118.59347503   176.95223936
 H      4   3   2     1.086797806142   120.16243009   180.68716400
 H      5   4   3     1.086704833525   120.62130394   180.00467527
 H      6   5   4     1.085938981293   119.82333331   177.15684261
 N      1   2   3     1.428797581601   121.80970520   185.64335237
 B      2   1   3     1.589866323197   123.29011107   179.48213085
 H     12   2   1     4.260217101910   134.86093246   234.35563847
 H     13  12   2     1.775534430346   108.60992689   321.09657164
 H     13  12   2     1.767818154120    52.07214825   342.76573647
 C     14  13  12     2.806710149089   120.06117302   331.65674733
 H     16  14  13     1.094964554199    71.64315248   218.61816940
 H     16  14  13     1.093323922898   168.88317738   128.24833049
 H     16  14  13     1.091311073982    62.58866051    94.96972631
 C     16  14  13     2.506493910915   104.54193948   309.25828393
 H     20  16  14     1.093072418912    90.69144685   170.53344930
 H     20  16  14     1.093977732726    91.43880521   278.94434478
 H     20  16  14     1.093820713289   145.54974847    46.16635437
 C     12   2   1     1.990611856415   111.24804901   115.55004136
 C     24  12   2     1.391998104175   113.42229160   352.52496546
 C     25  24  12     1.407010818302   114.47368012   232.79902233
 H     12   2   1     1.190991417268   122.22529013   359.90693635
 H     12   2   1     1.225758752139   112.34037830   223.85760783
 C     13  12   2     2.146164265892    68.95415770   266.10372916
 C     16  14  13     1.521355470124    80.32452878   334.54030628
 O     29  13  12     1.441437394473    90.25968512   320.81991787
 O     30  16  14     1.442808376970   108.57592859   109.63565005
 B     31  29  13     1.384089029245   106.30500686   114.90764263
 C     29  13  12     1.521812151721    95.60673131   212.46462324
 H     34  29  13     1.093168530781   109.60579136    25.83641326
 H     34  29  13     1.091239747727   111.38345432   145.27335880
 H     34  29  13     1.094937463101   110.77659634   266.62536005
 C     13  12   2     1.092943578063    74.40345424   310.60626547
 H     25  24  12     1.083992819398   121.52156074    51.78472408
 C     26  25  24     1.375467612098   111.46666927   359.01646962
 H     26  25  24     1.082766064725   124.64273891   178.64516430
 H     40  26  25     1.082943329188   126.93154641   179.53037023
 S     40  26  25     1.697079312540   112.76981893     0.15421389
 C     11   1   2     1.484748865397   118.39148731    91.34974930
 C     11   1   2     1.474911540319   118.73291064   257.41758268
 C     45  11   1     1.537057918648   107.73782030   158.98817161
 C     45  11   1     1.533842616342   109.51318003    42.37693258
 C     45  11   1     1.547092564169   114.11119155   282.26350023
 C     46  45  11     1.535477942519   113.79481246    59.07225873
 H     46  45  11     1.095887275020   106.80653763   297.50832126
 H     46  45  11     1.096160467612   109.04244580   182.72263694
 C     49  46  45     1.534161333338   112.16636374   333.60074139
 H     49  46  45     1.095374219721   109.08180618   211.19891031
 H     49  46  45     1.095674668269   110.38783969    95.13913579
 C     44  11   1     1.537738774750   111.74869219    28.92419477
 C     44  11   1     1.541769534400   111.37832941   268.88481837
 H     52  49  46     1.095837983425   110.08646737   207.64823461
 H     52  49  46     1.095261329996   110.01227981    91.28543375
 H     55  44  11     1.093964804901   111.50133565    59.66722777
 H     55  44  11     1.093083450325   111.91600153   298.49906641
 H     55  44  11     1.094941144527   109.27469117   179.02113148
 H     56  44  11     1.096278781747   110.51013048   181.67406782
 H     56  44  11     1.093798599248   110.59136474    62.26413316
 H     56  44  11     1.092861940826   111.86895886   302.56927088
 H     48  45  11     1.092313302776   112.59609046   304.19027048
 H     48  45  11     1.096010166495   110.35057969   183.58368652
 H     48  45  11     1.094102780398   110.47036156    64.92732764
 H     47  45  11     1.093485150109   111.63072512   297.66066907
 H     47  45  11     1.095164532555   110.00221676   177.87786970
 H     47  45  11     1.091923509078   110.31461920    58.15728351

---------------------------
INTERNAL COORDINATES (A.U.)
---------------------------
 C      0   0   0     0.000000000000     0.00000000     0.00000000
 C      1   0   0     2.670845939250     0.00000000     0.00000000
 C      2   1   0     2.660565044959   117.52518026     0.00000000
 C      3   2   1     2.624056423051   122.49457575   356.23940014
 C      4   3   2     2.629790431205   119.41962998     1.00210868
 C      5   4   3     2.622625970047   119.26913565     1.60865146
 H      3   2   1     2.056138228187   118.59347503   176.95223936
 H      4   3   2     2.053750216556   120.16243009   180.68716400
 H      5   4   3     2.053574523770   120.62130394   180.00467527
 H      6   5   4     2.052127272793   119.82333331   177.15684261
 N      1   2   3     2.700036130034   121.80970520   185.64335237
 B      2   1   3     3.004411940387   123.29011107   179.48213085
 H     12   2   1     8.050643593658   134.86093246   234.35563847
 H     13  12   2     3.355273814702   108.60992689   321.09657164
 H     13  12   2     3.340692165861    52.07214825   342.76573647
 C     14  13  12     5.303913519075   120.06117302   331.65674733
 H     16  14  13     2.069183133787    71.64315248   218.61816940
 H     16  14  13     2.066082789942   168.88317738   128.24833049
 H     16  14  13     2.062279056742    62.58866051    94.96972631
 C     16  14  13     4.736587047970   104.54193948   309.25828393
 H     20  16  14     2.065607516286    90.69144685   170.53344930
 H     20  16  14     2.067318311461    91.43880521   278.94434478
 H     20  16  14     2.067021587726   145.54974847    46.16635437
 C     12   2   1     3.761711247560   111.24804901   115.55004136
 C     24  12   2     2.630495195828   113.42229160   352.52496546
 C     25  24  12     2.658865114056   114.47368012   232.79902233
 H     12   2   1     2.250647606486   122.22529013   359.90693635
 H     12   2   1     2.316348347800   112.34037830   223.85760783
 C     13  12   2     4.055662700945    68.95415770   266.10372916
 C     16  14  13     2.874945190878    80.32452878   334.54030628
 O     29  13  12     2.723921914747    90.25968512   320.81991787
 O     30  16  14     2.726512696200   108.57592859   109.63565005
 B     31  29  13     2.615549210237   106.30500686   114.90764263
 C     29  13  12     2.875808194026    95.60673131   212.46462324
 H     34  29  13     2.065789141396   109.60579136    25.83641326
 H     34  29  13     2.062144269654   111.38345432   145.27335880
 H     34  29  13     2.069131939030   110.77659634   266.62536005
 C     13  12   2     2.065364042368    74.40345424   310.60626547
 H     25  24  12     2.048449559799   121.52156074    51.78472408
 C     26  25  24     2.599257092944   111.46666927   359.01646962
 H     26  25  24     2.046131329435   124.64273891   178.64516430
 H     40  26  25     2.046466310722   126.93154641   179.53037023
 S     40  26  25     3.207015128243   112.76981893     0.15421389
 C     11   1   2     2.805768733250   118.39148731    91.34974930
 C     11   1   2     2.787178882962   118.73291064   257.41758268
 C     45  11   1     2.904618518219   107.73782030   158.98817161
 C     45  11   1     2.898542477423   109.51318003    42.37693258
 C     45  11   1     2.923581250105   114.11119155   282.26350023
 C     46  45  11     2.901632796038   113.79481246    59.07225873
 H     46  45  11     2.070926823436   106.80653763   297.50832126
 H     46  45  11     2.071443082617   109.04244580   182.72263694
 C     49  46  45     2.899144765260   112.16636374   333.60074139
 H     49  46  45     2.069957289430   109.08180618   211.19891031
 H     49  46  45     2.070525054903   110.38783969    95.13913579
 C     44  11   1     2.905905149789   111.74869219    28.92419477
 C     44  11   1     2.913522181639   111.37832941   268.88481837
 H     52  49  46     2.070833675823   110.08646737   207.64823461
 H     52  49  46     2.069743958767   110.01227981    91.28543375
 H     55  44  11     2.067293881412   111.50133565    59.66722777
 H     55  44  11     2.065628362636   111.91600153   298.49906641
 H     55  44  11     2.069138895918   109.27469117   179.02113148
 H     56  44  11     2.071666663931   110.51013048   181.67406782
 H     56  44  11     2.066979798245   110.59136474    62.26413316
 H     56  44  11     2.065209770348   111.86895886   302.56927088
 H     48  45  11     2.064172994685   112.59609046   304.19027048
 H     48  45  11     2.071159054670   110.35057969   183.58368652
 H     48  45  11     2.067554617314   110.47036156    64.92732764
 H     47  45  11     2.066387465216   111.63072512   297.66066907
 H     47  45  11     2.069561038112   110.00221676   177.87786970
 H     47  45  11     2.063436391348   110.31461920    58.15728351

Calling /groups/kemi/jmni/software/orca-external-tools/umaclient.sh input_EXT.extinp.tmp -b 127.0.0.1:53439  ... 

Total time:   4.297 seconds

External program completed successfully in 4.330 sec

-------------------------------------------------   --------------------
FINAL SINGLE POINT ENERGY (From external program)     -1629.230390934000
-------------------------------------------------   --------------------


------------------
CARTESIAN GRADIENT
------------------

   1   C   :   -0.002756308    0.001506006    0.000897581
   2   C   :    0.000193068    0.001860333   -0.000572233
   3   C   :    0.000905308    0.001339469    0.000488154
   4   C   :    0.001188347   -0.001428615   -0.000554093
   5   C   :    0.000428522   -0.001640334   -0.000777791
   6   C   :   -0.001560770   -0.001655928   -0.000402635
   7   H   :    0.002521260    0.001229350    0.000291541
   8   H   :    0.002073491   -0.001288952   -0.000646315
   9   H   :   -0.000226171   -0.002312613   -0.001051766
  10   H   :   -0.002262276   -0.001054586   -0.000141369
  11   N   :   -0.000456855   -0.000760153   -0.000512416
  12   B   :    0.006066865    0.000939693    0.002925218
  13   H   :   -0.001489097    0.001199590   -0.000166669
  14   H   :    0.001071674    0.000786392   -0.001651551
  15   H   :   -0.001069582   -0.001272282   -0.001179477
  16   C   :    0.000226925   -0.000521587    0.000258477
  17   H   :    0.001589843    0.001167793   -0.000634088
  18   H   :    0.000882853   -0.001740259   -0.000500487
  19   H   :   -0.000835732   -0.000351851   -0.001846706
  20   C   :   -0.000012625   -0.000597842    0.000169801
  21   H   :    0.000699051   -0.001760419    0.000519365
  22   H   :    0.002027080    0.000828790    0.000407993
  23   H   :   -0.000654570    0.000096580    0.001660702
  24   C   :    0.001168032   -0.001219216   -0.000228416
  25   C   :    0.001771901   -0.000071295   -0.001126237
  26   C   :   -0.001004518   -0.000100602    0.002279419
  27   H   :   -0.003029254    0.001633299   -0.000973098
  28   H   :    0.001617193    0.000900640   -0.000427094
  29   C   :   -0.004161232   -0.001697569    0.002435031
  30   C   :   -0.002678276   -0.002673624    0.000395774
  31   O   :    0.002212128    0.000996365   -0.000979854
  32   O   :    0.001912495    0.000406533    0.000060238
  33   B   :   -0.002214261    0.002244641   -0.006195829
  34   C   :   -0.000215921    0.000598939    0.000027723
  35   H   :   -0.000782273    0.001817108    0.000484864
  36   H   :    0.000373318   -0.000060397    0.002060241
  37   H   :    0.001752128    0.000824637   -0.000769362
  38   C   :   -0.000188264    0.000947663    0.000368296
  39   H   :    0.000725870   -0.001391551   -0.001601348
  40   C   :    0.000132902   -0.003213143    0.003128871
  41   H   :   -0.000123054   -0.002112160    0.001003468
  42   H   :   -0.000973197    0.000204924    0.002283359
  43   S   :   -0.001530566    0.006157918    0.000634984
  44   C   :    0.001377263   -0.000698413    0.001005572
  45   C   :    0.001538615    0.000552047   -0.001125610
  46   C   :   -0.001030215    0.000294802    0.000123060
  47   C   :   -0.000157699   -0.000198440    0.000597195
  48   C   :    0.000057811   -0.000179131    0.000727708
  49   C   :    0.000072130    0.000059063    0.000052443
  50   H   :    0.000871025    0.001455436    0.000696801
  51   H   :   -0.001263071    0.000164055    0.001930409
  52   C   :   -0.000759927    0.000777384    0.000324233
  53   H   :   -0.000558564    0.002138034   -0.000032152
  54   H   :   -0.002050876   -0.000749452    0.000341164
  55   C   :    0.000088950    0.000411088   -0.000411818
  56   C   :   -0.000088164   -0.000050149   -0.000709813
  57   H   :   -0.001339041    0.001109170   -0.001481147
  58   H   :   -0.001060828   -0.002086733   -0.000490827
  59   H   :   -0.000535209   -0.001922096   -0.000603526
  60   H   :    0.001518612   -0.000198688   -0.000645016
  61   H   :   -0.000754829    0.000595117   -0.001998677
  62   H   :   -0.000618792    0.001492219   -0.001250028
  63   H   :    0.001698038    0.000509154   -0.000087022
  64   H   :    0.000011634    0.001301788    0.001478598
  65   H   :   -0.001352562   -0.000303082   -0.001728339
  66   H   :   -0.001352973   -0.000845411    0.001371862
  67   H   :    0.000913456   -0.001862463   -0.000362203
  68   H   :    0.001306610   -0.000947921    0.000158699
  69   H   :   -0.000349866   -0.000294227    0.001984932
  70   H   :    0.000503023    0.000715162    0.000291236

Difference to translation invariance:
           :    0.0000000038    0.0000000005    0.0000000007

Difference to rotation invariance:
           :    0.0000000099    0.0000000427   -0.0000000183

Norm of the Cartesian gradient     ...    0.0211922818
RMS gradient                       ...    0.0014624064
MAX gradient                       ...    0.0061958292

----------------------------------------------------------------------------
                           ORCA NUMERICAL FREQUENCIES
                              (10-process run)
----------------------------------------------------------------------------

Number of atoms                ... 70
Central differences            ... used
Translation invariance         ... used
Number of displacements        ... 420 - 6
Numerical increment            ... 5.000e-03 bohr
IR-spectrum generation         ... on
Raman-spectrum generation      ... off
Surface Crossing Hessian       ... off

The output will be reduced. Please look at the following files:
SCF program output             ... >input.lastscf
Integral program output        ... >input.lastint
Gradient program output        ... >input.lastgrad
Dipole moment program output   ... >input.lastmom

List of participating nodes    ...  input.hostnames

	<< Calculating gradient on displaced geometry   3 (of 414) >>
	<< Calculating gradient on displaced geometry   9 (of 414) >>
	<< Calculating gradient on displaced geometry  10 (of 414) >>
	<< Calculating gradient on displaced geometry   5 (of 414) >>
	<< Calculating gradient on displaced geometry   6 (of 414) >>
	<< Calculating gradient on displaced geometry   7 (of 414) >>
	<< Calculating gradient on displaced geometry   1 (of 414) >>
	<< Calculating gradient on displaced geometry   2 (of 414) >>
	<< Calculating gradient on displaced geometry   4 (of 414) >>
	<< Calculating gradient on displaced geometry   8 (of 414) >>
	<< Calculating gradient on displaced geometry  11 (of 414) >>
	<< Calculating gradient on displaced geometry  12 (of 414) >>
	<< Calculating gradient on displaced geometry  13 (of 414) >>
	<< Calculating gradient on displaced geometry  14 (of 414) >>
	<< Calculating gradient on displaced geometry  15 (of 414) >>
	<< Calculating gradient on displaced geometry  16 (of 414) >>
	<< Calculating gradient on displaced geometry  17 (of 414) >>
	<< Calculating gradient on displaced geometry  18 (of 414) >>
	<< Calculating gradient on displaced geometry  19 (of 414) >>
	<< Calculating gradient on displaced geometry  20 (of 414) >>
	<< Calculating gradient on displaced geometry  21 (of 414) >>
	<< Calculating gradient on displaced geometry  22 (of 414) >>
	<< Calculating gradient on displaced geometry  23 (of 414) >>
	<< Calculating gradient on displaced geometry  24 (of 414) >>
	<< Calculating gradient on displaced geometry  25 (of 414) >>
	<< Calculating gradient on displaced geometry  26 (of 414) >>
	<< Calculating gradient on displaced geometry  27 (of 414) >>
	<< Calculating gradient on displaced geometry  28 (of 414) >>
	<< Calculating gradient on displaced geometry  29 (of 414) >>
	<< Calculating gradient on displaced geometry  30 (of 414) >>
	<< Calculating gradient on displaced geometry  31 (of 414) >>
	<< Calculating gradient on displaced geometry  32 (of 414) >>
	<< Calculating gradient on displaced geometry  33 (of 414) >>
	<< Calculating gradient on displaced geometry  34 (of 414) >>
	<< Calculating gradient on displaced geometry  35 (of 414) >>
	<< Calculating gradient on displaced geometry  36 (of 414) >>
	<< Calculating gradient on displaced geometry  37 (of 414) >>
	<< Calculating gradient on displaced geometry  38 (of 414) >>
	<< Calculating gradient on displaced geometry  39 (of 414) >>
	<< Calculating gradient on displaced geometry  40 (of 414) >>
	<< Calculating gradient on displaced geometry  41 (of 414) >>
	<< Calculating gradient on displaced geometry  42 (of 414) >>
	<< Calculating gradient on displaced geometry  43 (of 414) >>
	<< Calculating gradient on displaced geometry  44 (of 414) >>
	<< Calculating gradient on displaced geometry  45 (of 414) >>
	<< Calculating gradient on displaced geometry  46 (of 414) >>
	<< Calculating gradient on displaced geometry  47 (of 414) >>
	<< Calculating gradient on displaced geometry  48 (of 414) >>
	<< Calculating gradient on displaced geometry  49 (of 414) >>
	<< Calculating gradient on displaced geometry  50 (of 414) >>
	<< Calculating gradient on displaced geometry  51 (of 414) >>
	<< Calculating gradient on displaced geometry  52 (of 414) >>
	<< Calculating gradient on displaced geometry  53 (of 414) >>
	<< Calculating gradient on displaced geometry  54 (of 414) >>
	<< Calculating gradient on displaced geometry  55 (of 414) >>
	<< Calculating gradient on displaced geometry  56 (of 414) >>
	<< Calculating gradient on displaced geometry  57 (of 414) >>
	<< Calculating gradient on displaced geometry  58 (of 414) >>
	<< Calculating gradient on displaced geometry  59 (of 414) >>
	<< Calculating gradient on displaced geometry  60 (of 414) >>
	<< Calculating gradient on displaced geometry  61 (of 414) >>
	<< Calculating gradient on displaced geometry  62 (of 414) >>
	<< Calculating gradient on displaced geometry  63 (of 414) >>
	<< Calculating gradient on displaced geometry  64 (of 414) >>
	<< Calculating gradient on displaced geometry  65 (of 414) >>
	<< Calculating gradient on displaced geometry  66 (of 414) >>
	<< Calculating gradient on displaced geometry  67 (of 414) >>
	<< Calculating gradient on displaced geometry  68 (of 414) >>
	<< Calculating gradient on displaced geometry  69 (of 414) >>
	<< Calculating gradient on displaced geometry  70 (of 414) >>
	<< Calculating gradient on displaced geometry  71 (of 414) >>
	<< Calculating gradient on displaced geometry  72 (of 414) >>
	<< Calculating gradient on displaced geometry  73 (of 414) >>
	<< Calculating gradient on displaced geometry  74 (of 414) >>
	<< Calculating gradient on displaced geometry  75 (of 414) >>
	<< Calculating gradient on displaced geometry  76 (of 414) >>
	<< Calculating gradient on displaced geometry  77 (of 414) >>
	<< Calculating gradient on displaced geometry  78 (of 414) >>
	<< Calculating gradient on displaced geometry  79 (of 414) >>
	<< Calculating gradient on displaced geometry  80 (of 414) >>
	<< Calculating gradient on displaced geometry  81 (of 414) >>
	<< Calculating gradient on displaced geometry  82 (of 414) >>
	<< Calculating gradient on displaced geometry  83 (of 414) >>
	<< Calculating gradient on displaced geometry  84 (of 414) >>
	<< Calculating gradient on displaced geometry  85 (of 414) >>
	<< Calculating gradient on displaced geometry  86 (of 414) >>
	<< Calculating gradient on displaced geometry  87 (of 414) >>
	<< Calculating gradient on displaced geometry  88 (of 414) >>
	<< Calculating gradient on displaced geometry  89 (of 414) >>
	<< Calculating gradient on displaced geometry  90 (of 414) >>
	<< Calculating gradient on displaced geometry  91 (of 414) >>
	<< Calculating gradient on displaced geometry  92 (of 414) >>
	<< Calculating gradient on displaced geometry  93 (of 414) >>
	<< Calculating gradient on displaced geometry  94 (of 414) >>
	<< Calculating gradient on displaced geometry  95 (of 414) >>
	<< Calculating gradient on displaced geometry  96 (of 414) >>
	<< Calculating gradient on displaced geometry  97 (of 414) >>
	<< Calculating gradient on displaced geometry  98 (of 414) >>
	<< Calculating gradient on displaced geometry  99 (of 414) >>
	<< Calculating gradient on displaced geometry 100 (of 414) >>
	<< Calculating gradient on displaced geometry 101 (of 414) >>
	<< Calculating gradient on displaced geometry 102 (of 414) >>
	<< Calculating gradient on displaced geometry 103 (of 414) >>
	<< Calculating gradient on displaced geometry 104 (of 414) >>
	<< Calculating gradient on displaced geometry 105 (of 414) >>
	<< Calculating gradient on displaced geometry 106 (of 414) >>
	<< Calculating gradient on displaced geometry 107 (of 414) >>
	<< Calculating gradient on displaced geometry 108 (of 414) >>
	<< Calculating gradient on displaced geometry 109 (of 414) >>
	<< Calculating gradient on displaced geometry 110 (of 414) >>
	<< Calculating gradient on displaced geometry 111 (of 414) >>
	<< Calculating gradient on displaced geometry 112 (of 414) >>
	<< Calculating gradient on displaced geometry 113 (of 414) >>
	<< Calculating gradient on displaced geometry 114 (of 414) >>
	<< Calculating gradient on displaced geometry 115 (of 414) >>
	<< Calculating gradient on displaced geometry 116 (of 414) >>
	<< Calculating gradient on displaced geometry 117 (of 414) >>
	<< Calculating gradient on displaced geometry 118 (of 414) >>
	<< Calculating gradient on displaced geometry 119 (of 414) >>
	<< Calculating gradient on displaced geometry 120 (of 414) >>
	<< Calculating gradient on displaced geometry 121 (of 414) >>
	<< Calculating gradient on displaced geometry 122 (of 414) >>
	<< Calculating gradient on displaced geometry 123 (of 414) >>
	<< Calculating gradient on displaced geometry 124 (of 414) >>
	<< Calculating gradient on displaced geometry 125 (of 414) >>
	<< Calculating gradient on displaced geometry 126 (of 414) >>
	<< Calculating gradient on displaced geometry 127 (of 414) >>
	<< Calculating gradient on displaced geometry 128 (of 414) >>
	<< Calculating gradient on displaced geometry 129 (of 414) >>
	<< Calculating gradient on displaced geometry 130 (of 414) >>
	<< Calculating gradient on displaced geometry 131 (of 414) >>
	<< Calculating gradient on displaced geometry 132 (of 414) >>
	<< Calculating gradient on displaced geometry 133 (of 414) >>
	<< Calculating gradient on displaced geometry 134 (of 414) >>
	<< Calculating gradient on displaced geometry 135 (of 414) >>
	<< Calculating gradient on displaced geometry 136 (of 414) >>
	<< Calculating gradient on displaced geometry 137 (of 414) >>
	<< Calculating gradient on displaced geometry 138 (of 414) >>
	<< Calculating gradient on displaced geometry 139 (of 414) >>
	<< Calculating gradient on displaced geometry 140 (of 414) >>
	<< Calculating gradient on displaced geometry 141 (of 414) >>
	<< Calculating gradient on displaced geometry 142 (of 414) >>
	<< Calculating gradient on displaced geometry 143 (of 414) >>
	<< Calculating gradient on displaced geometry 144 (of 414) >>
	<< Calculating gradient on displaced geometry 145 (of 414) >>
	<< Calculating gradient on displaced geometry 146 (of 414) >>
	<< Calculating gradient on displaced geometry 147 (of 414) >>
	<< Calculating gradient on displaced geometry 148 (of 414) >>
	<< Calculating gradient on displaced geometry 149 (of 414) >>
	<< Calculating gradient on displaced geometry 150 (of 414) >>
	<< Calculating gradient on displaced geometry 151 (of 414) >>
	<< Calculating gradient on displaced geometry 152 (of 414) >>
	<< Calculating gradient on displaced geometry 153 (of 414) >>
	<< Calculating gradient on displaced geometry 154 (of 414) >>
	<< Calculating gradient on displaced geometry 155 (of 414) >>
	<< Calculating gradient on displaced geometry 156 (of 414) >>
	<< Calculating gradient on displaced geometry 157 (of 414) >>
	<< Calculating gradient on displaced geometry 158 (of 414) >>
	<< Calculating gradient on displaced geometry 159 (of 414) >>
	<< Calculating gradient on displaced geometry 160 (of 414) >>
	<< Calculating gradient on displaced geometry 161 (of 414) >>
	<< Calculating gradient on displaced geometry 162 (of 414) >>
	<< Calculating gradient on displaced geometry 163 (of 414) >>
	<< Calculating gradient on displaced geometry 164 (of 414) >>
	<< Calculating gradient on displaced geometry 165 (of 414) >>
	<< Calculating gradient on displaced geometry 166 (of 414) >>
	<< Calculating gradient on displaced geometry 167 (of 414) >>
	<< Calculating gradient on displaced geometry 168 (of 414) >>
	<< Calculating gradient on displaced geometry 169 (of 414) >>
	<< Calculating gradient on displaced geometry 170 (of 414) >>
	<< Calculating gradient on displaced geometry 171 (of 414) >>
	<< Calculating gradient on displaced geometry 172 (of 414) >>
	<< Calculating gradient on displaced geometry 173 (of 414) >>
	<< Calculating gradient on displaced geometry 174 (of 414) >>
	<< Calculating gradient on displaced geometry 175 (of 414) >>
	<< Calculating gradient on displaced geometry 176 (of 414) >>
	<< Calculating gradient on displaced geometry 177 (of 414) >>
	<< Calculating gradient on displaced geometry 178 (of 414) >>
	<< Calculating gradient on displaced geometry 179 (of 414) >>
	<< Calculating gradient on displaced geometry 180 (of 414) >>
	<< Calculating gradient on displaced geometry 181 (of 414) >>
	<< Calculating gradient on displaced geometry 182 (of 414) >>
	<< Calculating gradient on displaced geometry 183 (of 414) >>
	<< Calculating gradient on displaced geometry 184 (of 414) >>
	<< Calculating gradient on displaced geometry 185 (of 414) >>
	<< Calculating gradient on displaced geometry 186 (of 414) >>
	<< Calculating gradient on displaced geometry 187 (of 414) >>
	<< Calculating gradient on displaced geometry 188 (of 414) >>
	<< Calculating gradient on displaced geometry 189 (of 414) >>
	<< Calculating gradient on displaced geometry 190 (of 414) >>
	<< Calculating gradient on displaced geometry 191 (of 414) >>
	<< Calculating gradient on displaced geometry 192 (of 414) >>
	<< Calculating gradient on displaced geometry 193 (of 414) >>
	<< Calculating gradient on displaced geometry 194 (of 414) >>
	<< Calculating gradient on displaced geometry 195 (of 414) >>
	<< Calculating gradient on displaced geometry 196 (of 414) >>
	<< Calculating gradient on displaced geometry 197 (of 414) >>
	<< Calculating gradient on displaced geometry 198 (of 414) >>
	<< Calculating gradient on displaced geometry 199 (of 414) >>
	<< Calculating gradient on displaced geometry 200 (of 414) >>
	<< Calculating gradient on displaced geometry 201 (of 414) >>
	<< Calculating gradient on displaced geometry 202 (of 414) >>
	<< Calculating gradient on displaced geometry 203 (of 414) >>
	<< Calculating gradient on displaced geometry 204 (of 414) >>
	<< Calculating gradient on displaced geometry 205 (of 414) >>
	<< Calculating gradient on displaced geometry 206 (of 414) >>
	<< Calculating gradient on displaced geometry 207 (of 414) >>
	<< Calculating gradient on displaced geometry 208 (of 414) >>
	<< Calculating gradient on displaced geometry 209 (of 414) >>
	<< Calculating gradient on displaced geometry 210 (of 414) >>
	<< Calculating gradient on displaced geometry 211 (of 414) >>
	<< Calculating gradient on displaced geometry 212 (of 414) >>
	<< Calculating gradient on displaced geometry 213 (of 414) >>
	<< Calculating gradient on displaced geometry 214 (of 414) >>
	<< Calculating gradient on displaced geometry 215 (of 414) >>
	<< Calculating gradient on displaced geometry 216 (of 414) >>
	<< Calculating gradient on displaced geometry 217 (of 414) >>
	<< Calculating gradient on displaced geometry 218 (of 414) >>
	<< Calculating gradient on displaced geometry 219 (of 414) >>
	<< Calculating gradient on displaced geometry 220 (of 414) >>
	<< Calculating gradient on displaced geometry 221 (of 414) >>
	<< Calculating gradient on displaced geometry 222 (of 414) >>
	<< Calculating gradient on displaced geometry 223 (of 414) >>
	<< Calculating gradient on displaced geometry 224 (of 414) >>
	<< Calculating gradient on displaced geometry 225 (of 414) >>
	<< Calculating gradient on displaced geometry 226 (of 414) >>
	<< Calculating gradient on displaced geometry 227 (of 414) >>
	<< Calculating gradient on displaced geometry 228 (of 414) >>
	<< Calculating gradient on displaced geometry 229 (of 414) >>
	<< Calculating gradient on displaced geometry 230 (of 414) >>
	<< Calculating gradient on displaced geometry 231 (of 414) >>
	<< Calculating gradient on displaced geometry 232 (of 414) >>
	<< Calculating gradient on displaced geometry 233 (of 414) >>
	<< Calculating gradient on displaced geometry 234 (of 414) >>
	<< Calculating gradient on displaced geometry 235 (of 414) >>
	<< Calculating gradient on displaced geometry 236 (of 414) >>
	<< Calculating gradient on displaced geometry 237 (of 414) >>
	<< Calculating gradient on displaced geometry 238 (of 414) >>
	<< Calculating gradient on displaced geometry 239 (of 414) >>
	<< Calculating gradient on displaced geometry 240 (of 414) >>
	<< Calculating gradient on displaced geometry 241 (of 414) >>
	<< Calculating gradient on displaced geometry 242 (of 414) >>
	<< Calculating gradient on displaced geometry 243 (of 414) >>
	<< Calculating gradient on displaced geometry 244 (of 414) >>
	<< Calculating gradient on displaced geometry 245 (of 414) >>
	<< Calculating gradient on displaced geometry 246 (of 414) >>
	<< Calculating gradient on displaced geometry 247 (of 414) >>
	<< Calculating gradient on displaced geometry 248 (of 414) >>
	<< Calculating gradient on displaced geometry 249 (of 414) >>
	<< Calculating gradient on displaced geometry 250 (of 414) >>
	<< Calculating gradient on displaced geometry 251 (of 414) >>
	<< Calculating gradient on displaced geometry 252 (of 414) >>
	<< Calculating gradient on displaced geometry 253 (of 414) >>
	<< Calculating gradient on displaced geometry 254 (of 414) >>
	<< Calculating gradient on displaced geometry 255 (of 414) >>
	<< Calculating gradient on displaced geometry 256 (of 414) >>
	<< Calculating gradient on displaced geometry 257 (of 414) >>
	<< Calculating gradient on displaced geometry 258 (of 414) >>
	<< Calculating gradient on displaced geometry 259 (of 414) >>
	<< Calculating gradient on displaced geometry 260 (of 414) >>
	<< Calculating gradient on displaced geometry 261 (of 414) >>
	<< Calculating gradient on displaced geometry 262 (of 414) >>
	<< Calculating gradient on displaced geometry 263 (of 414) >>
	<< Calculating gradient on displaced geometry 264 (of 414) >>
	<< Calculating gradient on displaced geometry 265 (of 414) >>
	<< Calculating gradient on displaced geometry 266 (of 414) >>
	<< Calculating gradient on displaced geometry 267 (of 414) >>
	<< Calculating gradient on displaced geometry 268 (of 414) >>
	<< Calculating gradient on displaced geometry 269 (of 414) >>
	<< Calculating gradient on displaced geometry 270 (of 414) >>
	<< Calculating gradient on displaced geometry 271 (of 414) >>
	<< Calculating gradient on displaced geometry 272 (of 414) >>
	<< Calculating gradient on displaced geometry 273 (of 414) >>
	<< Calculating gradient on displaced geometry 274 (of 414) >>
	<< Calculating gradient on displaced geometry 275 (of 414) >>
	<< Calculating gradient on displaced geometry 276 (of 414) >>
	<< Calculating gradient on displaced geometry 277 (of 414) >>
	<< Calculating gradient on displaced geometry 278 (of 414) >>
	<< Calculating gradient on displaced geometry 279 (of 414) >>
	<< Calculating gradient on displaced geometry 280 (of 414) >>
	<< Calculating gradient on displaced geometry 281 (of 414) >>
	<< Calculating gradient on displaced geometry 282 (of 414) >>
	<< Calculating gradient on displaced geometry 283 (of 414) >>
	<< Calculating gradient on displaced geometry 284 (of 414) >>
	<< Calculating gradient on displaced geometry 285 (of 414) >>
	<< Calculating gradient on displaced geometry 286 (of 414) >>
	<< Calculating gradient on displaced geometry 287 (of 414) >>
	<< Calculating gradient on displaced geometry 288 (of 414) >>
	<< Calculating gradient on displaced geometry 289 (of 414) >>
	<< Calculating gradient on displaced geometry 290 (of 414) >>
	<< Calculating gradient on displaced geometry 291 (of 414) >>
	<< Calculating gradient on displaced geometry 292 (of 414) >>
	<< Calculating gradient on displaced geometry 293 (of 414) >>
	<< Calculating gradient on displaced geometry 294 (of 414) >>
	<< Calculating gradient on displaced geometry 295 (of 414) >>
	<< Calculating gradient on displaced geometry 296 (of 414) >>
	<< Calculating gradient on displaced geometry 297 (of 414) >>
	<< Calculating gradient on displaced geometry 298 (of 414) >>
	<< Calculating gradient on displaced geometry 299 (of 414) >>
	<< Calculating gradient on displaced geometry 300 (of 414) >>
	<< Calculating gradient on displaced geometry 301 (of 414) >>
	<< Calculating gradient on displaced geometry 302 (of 414) >>
	<< Calculating gradient on displaced geometry 303 (of 414) >>
	<< Calculating gradient on displaced geometry 304 (of 414) >>
	<< Calculating gradient on displaced geometry 305 (of 414) >>
	<< Calculating gradient on displaced geometry 306 (of 414) >>
	<< Calculating gradient on displaced geometry 307 (of 414) >>
	<< Calculating gradient on displaced geometry 308 (of 414) >>
	<< Calculating gradient on displaced geometry 309 (of 414) >>
	<< Calculating gradient on displaced geometry 310 (of 414) >>
	<< Calculating gradient on displaced geometry 311 (of 414) >>
	<< Calculating gradient on displaced geometry 312 (of 414) >>
	<< Calculating gradient on displaced geometry 313 (of 414) >>
	<< Calculating gradient on displaced geometry 314 (of 414) >>
	<< Calculating gradient on displaced geometry 315 (of 414) >>
	<< Calculating gradient on displaced geometry 316 (of 414) >>
	<< Calculating gradient on displaced geometry 317 (of 414) >>
	<< Calculating gradient on displaced geometry 318 (of 414) >>
	<< Calculating gradient on displaced geometry 319 (of 414) >>
	<< Calculating gradient on displaced geometry 320 (of 414) >>
	<< Calculating gradient on displaced geometry 321 (of 414) >>
	<< Calculating gradient on displaced geometry 322 (of 414) >>
	<< Calculating gradient on displaced geometry 323 (of 414) >>
	<< Calculating gradient on displaced geometry 324 (of 414) >>
	<< Calculating gradient on displaced geometry 325 (of 414) >>
	<< Calculating gradient on displaced geometry 326 (of 414) >>
	<< Calculating gradient on displaced geometry 327 (of 414) >>
	<< Calculating gradient on displaced geometry 328 (of 414) >>
	<< Calculating gradient on displaced geometry 329 (of 414) >>
	<< Calculating gradient on displaced geometry 330 (of 414) >>
	<< Calculating gradient on displaced geometry 331 (of 414) >>
	<< Calculating gradient on displaced geometry 332 (of 414) >>
	<< Calculating gradient on displaced geometry 333 (of 414) >>
	<< Calculating gradient on displaced geometry 334 (of 414) >>
	<< Calculating gradient on displaced geometry 335 (of 414) >>
	<< Calculating gradient on displaced geometry 336 (of 414) >>
	<< Calculating gradient on displaced geometry 337 (of 414) >>
	<< Calculating gradient on displaced geometry 338 (of 414) >>
	<< Calculating gradient on displaced geometry 339 (of 414) >>
	<< Calculating gradient on displaced geometry 340 (of 414) >>
	<< Calculating gradient on displaced geometry 341 (of 414) >>
	<< Calculating gradient on displaced geometry 342 (of 414) >>
	<< Calculating gradient on displaced geometry 343 (of 414) >>
	<< Calculating gradient on displaced geometry 344 (of 414) >>
	<< Calculating gradient on displaced geometry 345 (of 414) >>
	<< Calculating gradient on displaced geometry 346 (of 414) >>
	<< Calculating gradient on displaced geometry 347 (of 414) >>
	<< Calculating gradient on displaced geometry 348 (of 414) >>
	<< Calculating gradient on displaced geometry 349 (of 414) >>
	<< Calculating gradient on displaced geometry 350 (of 414) >>
	<< Calculating gradient on displaced geometry 351 (of 414) >>
	<< Calculating gradient on displaced geometry 352 (of 414) >>
	<< Calculating gradient on displaced geometry 353 (of 414) >>
	<< Calculating gradient on displaced geometry 354 (of 414) >>
	<< Calculating gradient on displaced geometry 355 (of 414) >>
	<< Calculating gradient on displaced geometry 356 (of 414) >>
	<< Calculating gradient on displaced geometry 357 (of 414) >>
	<< Calculating gradient on displaced geometry 358 (of 414) >>
	<< Calculating gradient on displaced geometry 359 (of 414) >>
	<< Calculating gradient on displaced geometry 360 (of 414) >>
	<< Calculating gradient on displaced geometry 361 (of 414) >>
	<< Calculating gradient on displaced geometry 362 (of 414) >>
	<< Calculating gradient on displaced geometry 363 (of 414) >>
	<< Calculating gradient on displaced geometry 364 (of 414) >>
	<< Calculating gradient on displaced geometry 365 (of 414) >>
	<< Calculating gradient on displaced geometry 366 (of 414) >>
	<< Calculating gradient on displaced geometry 367 (of 414) >>
	<< Calculating gradient on displaced geometry 368 (of 414) >>
	<< Calculating gradient on displaced geometry 369 (of 414) >>
	<< Calculating gradient on displaced geometry 370 (of 414) >>
	<< Calculating gradient on displaced geometry 371 (of 414) >>
	<< Calculating gradient on displaced geometry 372 (of 414) >>
	<< Calculating gradient on displaced geometry 373 (of 414) >>
	<< Calculating gradient on displaced geometry 374 (of 414) >>
	<< Calculating gradient on displaced geometry 375 (of 414) >>
	<< Calculating gradient on displaced geometry 376 (of 414) >>
	<< Calculating gradient on displaced geometry 377 (of 414) >>
	<< Calculating gradient on displaced geometry 378 (of 414) >>
	<< Calculating gradient on displaced geometry 379 (of 414) >>
	<< Calculating gradient on displaced geometry 380 (of 414) >>
	<< Calculating gradient on displaced geometry 381 (of 414) >>
	<< Calculating gradient on displaced geometry 382 (of 414) >>
	<< Calculating gradient on displaced geometry 383 (of 414) >>
	<< Calculating gradient on displaced geometry 384 (of 414) >>
	<< Calculating gradient on displaced geometry 385 (of 414) >>
	<< Calculating gradient on displaced geometry 386 (of 414) >>
	<< Calculating gradient on displaced geometry 387 (of 414) >>
	<< Calculating gradient on displaced geometry 388 (of 414) >>
	<< Calculating gradient on displaced geometry 389 (of 414) >>
	<< Calculating gradient on displaced geometry 390 (of 414) >>
	<< Calculating gradient on displaced geometry 391 (of 414) >>
	<< Calculating gradient on displaced geometry 392 (of 414) >>
	<< Calculating gradient on displaced geometry 393 (of 414) >>
	<< Calculating gradient on displaced geometry 394 (of 414) >>
	<< Calculating gradient on displaced geometry 395 (of 414) >>
	<< Calculating gradient on displaced geometry 396 (of 414) >>
	<< Calculating gradient on displaced geometry 397 (of 414) >>
	<< Calculating gradient on displaced geometry 398 (of 414) >>
	<< Calculating gradient on displaced geometry 399 (of 414) >>
	<< Calculating gradient on displaced geometry 400 (of 414) >>
	<< Calculating gradient on displaced geometry 401 (of 414) >>
	<< Calculating gradient on displaced geometry 402 (of 414) >>
	<< Calculating gradient on displaced geometry 403 (of 414) >>
	<< Calculating gradient on displaced geometry 404 (of 414) >>
	<< Calculating gradient on displaced geometry 405 (of 414) >>
	<< Calculating gradient on displaced geometry 406 (of 414) >>
	<< Calculating gradient on displaced geometry 407 (of 414) >>
	<< Calculating gradient on displaced geometry 408 (of 414) >>
	<< Calculating gradient on displaced geometry 409 (of 414) >>
	<< Calculating gradient on displaced geometry 410 (of 414) >>
	<< Calculating gradient on displaced geometry 411 (of 414) >>
	<< Calculating gradient on displaced geometry 412 (of 414) >>
	<< Calculating gradient on displaced geometry 413 (of 414) >>
	<< Calculating gradient on displaced geometry 414 (of 414) >>

-----------------------
VIBRATIONAL FREQUENCIES
-----------------------

Scaling factor for frequencies =  1.000000000  (already applied!)

     0:       0.00 cm**-1
     1:       0.00 cm**-1
     2:       0.00 cm**-1
     3:       0.00 cm**-1
     4:       0.00 cm**-1
     5:       0.00 cm**-1
     6:    -136.17 cm**-1  ***imaginary mode***
     7:      37.22 cm**-1
     8:      51.20 cm**-1
     9:      57.33 cm**-1
    10:      61.20 cm**-1
    11:      74.26 cm**-1
    12:      82.59 cm**-1
    13:      85.26 cm**-1
    14:      91.36 cm**-1
    15:     107.15 cm**-1
    16:     111.28 cm**-1
    17:     137.35 cm**-1
    18:     139.48 cm**-1
    19:     155.44 cm**-1
    20:     180.61 cm**-1
    21:     183.17 cm**-1
    22:     193.44 cm**-1
    23:     224.61 cm**-1
    24:     233.16 cm**-1
    25:     247.40 cm**-1
    26:     256.09 cm**-1
    27:     263.66 cm**-1
    28:     276.43 cm**-1
    29:     283.27 cm**-1
    30:     292.72 cm**-1
    31:     305.50 cm**-1
    32:     309.43 cm**-1
    33:     312.48 cm**-1
    34:     317.60 cm**-1
    35:     325.95 cm**-1
    36:     329.06 cm**-1
    37:     331.05 cm**-1
    38:     341.36 cm**-1
    39:     347.21 cm**-1
    40:     355.66 cm**-1
    41:     358.65 cm**-1
    42:     369.89 cm**-1
    43:     372.25 cm**-1
    44:     377.70 cm**-1
    45:     394.00 cm**-1
    46:     396.05 cm**-1
    47:     401.63 cm**-1
    48:     408.35 cm**-1
    49:     444.32 cm**-1
    50:     464.96 cm**-1
    51:     481.61 cm**-1
    52:     492.82 cm**-1
    53:     500.97 cm**-1
    54:     503.54 cm**-1
    55:     522.80 cm**-1
    56:     527.98 cm**-1
    57:     537.26 cm**-1
    58:     568.92 cm**-1
    59:     580.50 cm**-1
    60:     581.40 cm**-1
    61:     589.63 cm**-1
    62:     604.28 cm**-1
    63:     620.64 cm**-1
    64:     648.53 cm**-1
    65:     677.25 cm**-1
    66:     687.88 cm**-1
    67:     740.17 cm**-1
    68:     747.41 cm**-1
    69:     763.07 cm**-1
    70:     774.93 cm**-1
    71:     785.47 cm**-1
    72:     788.90 cm**-1
    73:     802.98 cm**-1
    74:     805.64 cm**-1
    75:     823.78 cm**-1
    76:     849.28 cm**-1
    77:     868.08 cm**-1
    78:     883.49 cm**-1
    79:     885.35 cm**-1
    80:     886.17 cm**-1
    81:     911.33 cm**-1
    82:     918.89 cm**-1
    83:     928.90 cm**-1
    84:     930.85 cm**-1
    85:     931.97 cm**-1
    86:     939.72 cm**-1
    87:     943.48 cm**-1
    88:     944.37 cm**-1
    89:     957.66 cm**-1
    90:     976.92 cm**-1
    91:     978.78 cm**-1
    92:     980.82 cm**-1
    93:     985.17 cm**-1
    94:     989.70 cm**-1
    95:    1001.66 cm**-1
    96:    1008.02 cm**-1
    97:    1011.64 cm**-1
    98:    1013.92 cm**-1
    99:    1016.66 cm**-1
   100:    1026.24 cm**-1
   101:    1042.20 cm**-1
   102:    1043.88 cm**-1
   103:    1075.98 cm**-1
   104:    1085.43 cm**-1
   105:    1091.53 cm**-1
   106:    1102.46 cm**-1
   107:    1105.27 cm**-1
   108:    1117.40 cm**-1
   109:    1135.52 cm**-1
   110:    1137.26 cm**-1
   111:    1147.42 cm**-1
   112:    1168.89 cm**-1
   113:    1175.99 cm**-1
   114:    1177.63 cm**-1
   115:    1187.79 cm**-1
   116:    1194.91 cm**-1
   117:    1196.96 cm**-1
   118:    1211.17 cm**-1
   119:    1220.27 cm**-1
   120:    1238.56 cm**-1
   121:    1244.47 cm**-1
   122:    1246.50 cm**-1
   123:    1253.79 cm**-1
   124:    1265.54 cm**-1
   125:    1267.99 cm**-1
   126:    1268.55 cm**-1
   127:    1283.16 cm**-1
   128:    1293.18 cm**-1
   129:    1299.35 cm**-1
   130:    1305.26 cm**-1
   131:    1313.28 cm**-1
   132:    1314.37 cm**-1
   133:    1328.13 cm**-1
   134:    1357.87 cm**-1
   135:    1362.09 cm**-1
   136:    1374.43 cm**-1
   137:    1385.23 cm**-1
   138:    1390.81 cm**-1
   139:    1394.75 cm**-1
   140:    1400.20 cm**-1
   141:    1401.56 cm**-1
   142:    1407.72 cm**-1
   143:    1411.17 cm**-1
   144:    1412.54 cm**-1
   145:    1419.51 cm**-1
   146:    1433.12 cm**-1
   147:    1463.64 cm**-1
   148:    1465.55 cm**-1
   149:    1467.79 cm**-1
   150:    1469.58 cm**-1
   151:    1471.59 cm**-1
   152:    1473.39 cm**-1
   153:    1476.39 cm**-1
   154:    1476.79 cm**-1
   155:    1478.71 cm**-1
   156:    1481.33 cm**-1
   157:    1486.43 cm**-1
   158:    1492.89 cm**-1
   159:    1493.36 cm**-1
   160:    1493.67 cm**-1
   161:    1496.95 cm**-1
   162:    1497.96 cm**-1
   163:    1499.94 cm**-1
   164:    1502.30 cm**-1
   165:    1509.20 cm**-1
   166:    1512.79 cm**-1
   167:    1518.41 cm**-1
   168:    1537.38 cm**-1
   169:    1614.95 cm**-1
   170:    1649.34 cm**-1
   171:    2434.96 cm**-1
   172:    2634.75 cm**-1
   173:    3015.00 cm**-1
   174:    3017.20 cm**-1
   175:    3020.70 cm**-1
   176:    3022.64 cm**-1
   177:    3024.98 cm**-1
   178:    3028.05 cm**-1
   179:    3029.64 cm**-1
   180:    3031.51 cm**-1
   181:    3034.16 cm**-1
   182:    3034.35 cm**-1
   183:    3037.05 cm**-1
   184:    3039.81 cm**-1
   185:    3055.08 cm**-1
   186:    3067.72 cm**-1
   187:    3078.91 cm**-1
   188:    3081.06 cm**-1
   189:    3088.35 cm**-1
   190:    3090.07 cm**-1
   191:    3096.88 cm**-1
   192:    3098.04 cm**-1
   193:    3099.80 cm**-1
   194:    3102.06 cm**-1
   195:    3102.21 cm**-1
   196:    3102.62 cm**-1
   197:    3106.04 cm**-1
   198:    3107.63 cm**-1
   199:    3111.52 cm**-1
   200:    3115.64 cm**-1
   201:    3120.87 cm**-1
   202:    3122.22 cm**-1
   203:    3139.42 cm**-1
   204:    3150.93 cm**-1
   205:    3163.32 cm**-1
   206:    3175.72 cm**-1
   207:    3200.05 cm**-1
   208:    3210.66 cm**-1
   209:    3225.21 cm**-1


------------
NORMAL MODES
------------

These modes are the Cartesian displacements weighted by the diagonal matrix
M(i,i)=1/sqrt(m[i]) where m[i] is the mass of the displaced atom
Thus, these vectors are normalized but *not* orthogonal

                  0          1          2          3          4          5    
      0       0.000000   0.000000   0.000000   0.000000   0.000000   0.000000
      1       0.000000   0.000000   0.000000   0.000000   0.000000   0.000000
      2       0.000000   0.000000   0.000000   0.000000   0.000000   0.000000
      3       0.000000   0.000000   0.000000   0.000000   0.000000   0.000000
      4       0.000000   0.000000   0.000000   0.000000   0.000000   0.000000
      5       0.000000   0.000000   0.000000   0.000000   0.000000   0.000000
      6       0.000000   0.000000   0.000000   0.000000   0.000000   0.000000
      7       0.000000   0.000000   0.000000   0.000000   0.000000   0.000000
      8       0.000000   0.000000   0.000000   0.000000   0.000000   0.000000
      9       0.000000   0.000000   0.000000   0.000000   0.000000   0.000000
     10       0.000000   0.000000   0.000000   0.000000   0.000000   0.000000
     11       0.000000   0.000000   0.000000   0.000000   0.000000   0.000000
     12       0.000000   0.000000   0.000000   0.000000   0.000000   0.000000
     13       0.000000   0.000000   0.000000   0.000000   0.000000   0.000000
     14       0.000000   0.000000   0.000000   0.000000   0.000000   0.000000
     15       0.000000   0.000000   0.000000   0.000000   0.000000   0.000000
     16       0.000000   0.000000   0.000000   0.000000   0.000000   0.000000
     17       0.000000   0.000000   0.000000   0.000000   0.000000   0.000000
     18       0.000000   0.000000   0.000000   0.000000   0.000000   0.000000
     19       0.000000   0.000000   0.000000   0.000000   0.000000   0.000000
     20       0.000000   0.000000   0.000000   0.000000   0.000000   0.000000
     21       0.000000   0.000000   0.000000   0.000000   0.000000   0.000000
     22       0.000000   0.000000   0.000000   0.000000   0.000000   0.000000
     23       0.000000   0.000000   0.000000   0.000000   0.000000   0.000000
     24       0.000000   0.000000   0.000000   0.000000   0.000000   0.000000
     25       0.000000   0.000000   0.000000   0.000000   0.000000   0.000000
     26       0.000000   0.000000   0.000000   0.000000   0.000000   0.000000
     27       0.000000   0.000000   0.000000   0.000000   0.000000   0.000000
     28       0.000000   0.000000   0.000000   0.000000   0.000000   0.000000
     29       0.000000   0.000000   0.000000   0.000000   0.000000   0.000000
     30       0.000000   0.000000   0.000000   0.000000   0.000000   0.000000
     31       0.000000   0.000000   0.000000   0.000000   0.000000   0.000000
     32       0.000000   0.000000   0.000000   0.000000   0.000000   0.000000
     33       0.000000   0.000000   0.000000   0.000000   0.000000   0.000000
     34       0.000000   0.000000   0.000000   0.000000   0.000000   0.000000
     35       0.000000   0.000000   0.000000   0.000000   0.000000   0.000000
     36       0.000000   0.000000   0.000000   0.000000   0.000000   0.000000
     37       0.000000   0.000000   0.000000   0.000000   0.000000   0.000000
     38       0.000000   0.000000   0.000000   0.000000   0.000000   0.000000
     39       0.000000   0.000000   0.000000   0.000000   0.000000   0.000000
     40       0.000000   0.000000   0.000000   0.000000   0.000000   0.000000
     41       0.000000   0.000000   0.000000   0.000000   0.000000   0.000000
     42       0.000000   0.000000   0.000000   0.000000   0.000000   0.000000
     43       0.000000   0.000000   0.000000   0.000000   0.000000   0.000000
     44       0.000000   0.000000   0.000000   0.000000   0.000000   0.000000
     45       0.000000   0.000000   0.000000   0.000000   0.000000   0.000000
     46       0.000000   0.000000   0.000000   0.000000   0.000000   0.000000
     47       0.000000   0.000000   0.000000   0.000000   0.000000   0.000000
     48       0.000000   0.000000   0.000000   0.000000   0.000000   0.000000
     49       0.000000   0.000000   0.000000   0.000000   0.000000   0.000000
     50       0.000000   0.000000   0.000000   0.000000   0.000000   0.000000
     51       0.000000   0.000000   0.000000   0.000000   0.000000   0.000000
     52       0.000000   0.000000   0.000000   0.000000   0.000000   0.000000
     53       0.000000   0.000000   0.000000   0.000000   0.000000   0.000000
     54       0.000000   0.000000   0.000000   0.000000   0.000000   0.000000
     55       0.000000   0.000000   0.000000   0.000000   0.000000   0.000000
     56       0.000000   0.000000   0.000000   0.000000   0.000000   0.000000
     57       0.000000   0.000000   0.000000   0.000000   0.000000   0.000000
     58       0.000000   0.000000   0.000000   0.000000   0.000000   0.000000
     59       0.000000   0.000000   0.000000   0.000000   0.000000   0.000000
     60       0.000000   0.000000   0.000000   0.000000   0.000000   0.000000
     61       0.000000   0.000000   0.000000   0.000000   0.000000   0.000000
     62       0.000000   0.000000   0.000000   0.000000   0.000000   0.000000
     63       0.000000   0.000000   0.000000   0.000000   0.000000   0.000000
     64       0.000000   0.000000   0.000000   0.000000   0.000000   0.000000
     65       0.000000   0.000000   0.000000   0.000000   0.000000   0.000000
     66       0.000000   0.000000   0.000000   0.000000   0.000000   0.000000
     67       0.000000   0.000000   0.000000   0.000000   0.000000   0.000000
     68       0.000000   0.000000   0.000000   0.000000   0.000000   0.000000
     69       0.000000   0.000000   0.000000   0.000000   0.000000   0.000000
     70       0.000000   0.000000   0.000000   0.000000   0.000000   0.000000
     71       0.000000   0.000000   0.000000   0.000000   0.000000   0.000000
[...]
188:   3081.06   0.000000    0.00  0.000000  ( 0.000000  0.000000  0.000000)
189:   3088.35   0.000000    0.00  0.000000  ( 0.000000  0.000000  0.000000)
190:   3090.07   0.000000    0.00  0.000000  ( 0.000000  0.000000  0.000000)
191:   3096.88   0.000000    0.00  0.000000  ( 0.000000  0.000000  0.000000)
192:   3098.04   0.000000    0.00  0.000000  ( 0.000000  0.000000  0.000000)
193:   3099.80   0.000000    0.00  0.000000  ( 0.000000  0.000000  0.000000)
194:   3102.06   0.000000    0.00  0.000000  ( 0.000000  0.000000  0.000000)
195:   3102.21   0.000000    0.00  0.000000  ( 0.000000  0.000000  0.000000)
196:   3102.62   0.000000    0.00  0.000000  ( 0.000000  0.000000  0.000000)
197:   3106.04   0.000000    0.00  0.000000  ( 0.000000  0.000000  0.000000)
198:   3107.63   0.000000    0.00  0.000000  ( 0.000000  0.000000  0.000000)
199:   3111.52   0.000000    0.00  0.000000  ( 0.000000  0.000000  0.000000)
200:   3115.64   0.000000    0.00  0.000000  ( 0.000000  0.000000  0.000000)
201:   3120.87   0.000000    0.00  0.000000  ( 0.000000  0.000000  0.000000)
202:   3122.22   0.000000    0.00  0.000000  ( 0.000000  0.000000  0.000000)
203:   3139.42   0.000000    0.00  0.000000  ( 0.000000  0.000000  0.000000)
204:   3150.93   0.000000    0.00  0.000000  ( 0.000000  0.000000  0.000000)
205:   3163.32   0.000000    0.00  0.000000  ( 0.000000  0.000000  0.000000)
206:   3175.72   0.000000    0.00  0.000000  ( 0.000000  0.000000  0.000000)
207:   3200.05   0.000000    0.00  0.000000  ( 0.000000  0.000000  0.000000)
208:   3210.66   0.000000    0.00  0.000000  ( 0.000000  0.000000  0.000000)
209:   3225.21   0.000000    0.00  0.000000  ( 0.000000  0.000000  0.000000)

* The epsilon (eps) is given for a Dirac delta lineshape.
** The dipole moment derivative (T) already includes vibrational overlap.

The first frequency considered to be a vibration is 7
The total number of vibrations considered is 203


--------------------------
THERMOCHEMISTRY AT 298.15K
--------------------------

Temperature         ...   298.15 K
Pressure            ...     1.00 atm
Total Mass          ...   439.27 AMU
Quasi RRHO          ...     True
Cut-Off Frequency   ...     1.00 cm^-1

Throughout the following assumptions are being made:
  (1) The electronic state is orbitally nondegenerate
  (2) There are no thermally accessible electronically excited states
  (3) Hindered rotations indicated by low frequency modes are not
      treated as such but are treated as vibrations and this may
      cause some error
  (4) All equations used are the standard statistical mechanics
      equations for an ideal gas
  (5) All vibrations are strictly harmonic

freq.      37.22  E(vib)   ...       0.54 
freq.      51.20  E(vib)   ...       0.52 
freq.      57.33  E(vib)   ...       0.51 
freq.      61.20  E(vib)   ...       0.51 
freq.      74.26  E(vib)   ...       0.49 
freq.      82.59  E(vib)   ...       0.48 
freq.      85.26  E(vib)   ...       0.48 
freq.      91.36  E(vib)   ...       0.47 
freq.     107.15  E(vib)   ...       0.45 
freq.     111.28  E(vib)   ...       0.45 
freq.     137.35  E(vib)   ...       0.42 
freq.     139.48  E(vib)   ...       0.42 
freq.     155.44  E(vib)   ...       0.40 
freq.     180.61  E(vib)   ...       0.37 
freq.     183.17  E(vib)   ...       0.37 
freq.     193.44  E(vib)   ...       0.36 
freq.     224.61  E(vib)   ...       0.33 
freq.     233.16  E(vib)   ...       0.32 
freq.     247.40  E(vib)   ...       0.31 
freq.     256.09  E(vib)   ...       0.30 
freq.     263.66  E(vib)   ...       0.29 
freq.     276.43  E(vib)   ...       0.28 
freq.     283.27  E(vib)   ...       0.28 
freq.     292.72  E(vib)   ...       0.27 
freq.     305.50  E(vib)   ...       0.26 
freq.     309.43  E(vib)   ...       0.26 
freq.     312.48  E(vib)   ...       0.25 
freq.     317.60  E(vib)   ...       0.25 
freq.     325.95  E(vib)   ...       0.24 
freq.     329.06  E(vib)   ...       0.24 
freq.     331.05  E(vib)   ...       0.24 
freq.     341.36  E(vib)   ...       0.23 
freq.     347.21  E(vib)   ...       0.23 
freq.     355.66  E(vib)   ...       0.22 
freq.     358.65  E(vib)   ...       0.22 
freq.     369.89  E(vib)   ...       0.21 
freq.     372.25  E(vib)   ...       0.21 
freq.     377.70  E(vib)   ...       0.21 
freq.     394.00  E(vib)   ...       0.20 
freq.     396.05  E(vib)   ...       0.20 
freq.     401.63  E(vib)   ...       0.19 
freq.     408.35  E(vib)   ...       0.19 
freq.     444.32  E(vib)   ...       0.17 
freq.     464.96  E(vib)   ...       0.16 
freq.     481.61  E(vib)   ...       0.15 
freq.     492.82  E(vib)   ...       0.14 
freq.     500.97  E(vib)   ...       0.14 
freq.     503.54  E(vib)   ...       0.14 
freq.     522.80  E(vib)   ...       0.13 
freq.     527.98  E(vib)   ...       0.13 
freq.     537.26  E(vib)   ...       0.12 
freq.     568.92  E(vib)   ...       0.11 
freq.     580.50  E(vib)   ...       0.11 
freq.     581.40  E(vib)   ...       0.11 
freq.     589.63  E(vib)   ...       0.10 
freq.     604.28  E(vib)   ...       0.10 
freq.     620.64  E(vib)   ...       0.09 
freq.     648.53  E(vib)   ...       0.08 
freq.     677.25  E(vib)   ...       0.08 
freq.     687.88  E(vib)   ...       0.07 
freq.     740.17  E(vib)   ...       0.06 
freq.     747.41  E(vib)   ...       0.06 
freq.     763.07  E(vib)   ...       0.06 
freq.     774.93  E(vib)   ...       0.05 
freq.     785.47  E(vib)   ...       0.05 
freq.     788.90  E(vib)   ...       0.05 
freq.     802.98  E(vib)   ...       0.05 
freq.     805.64  E(vib)   ...       0.05 
freq.     823.78  E(vib)   ...       0.05 
freq.     849.28  E(vib)   ...       0.04 
freq.     868.08  E(vib)   ...       0.04 
freq.     883.49  E(vib)   ...       0.04 
freq.     885.35  E(vib)   ...       0.04 
freq.     886.17  E(vib)   ...       0.04 
freq.     911.33  E(vib)   ...       0.03 
freq.     918.89  E(vib)   ...       0.03 
freq.     928.90  E(vib)   ...       0.03 
freq.     930.85  E(vib)   ...       0.03 
freq.     931.97  E(vib)   ...       0.03 
freq.     939.72  E(vib)   ...       0.03 
freq.     943.48  E(vib)   ...       0.03 
freq.     944.37  E(vib)   ...       0.03 
freq.     957.66  E(vib)   ...       0.03 
freq.     976.92  E(vib)   ...       0.03 
freq.     978.78  E(vib)   ...       0.03 
freq.     980.82  E(vib)   ...       0.02 
freq.     985.17  E(vib)   ...       0.02 
freq.     989.70  E(vib)   ...       0.02 
freq.    1001.66  E(vib)   ...       0.02 
freq.    1008.02  E(vib)   ...       0.02 
freq.    1011.64  E(vib)   ...       0.02 
freq.    1013.92  E(vib)   ...       0.02 
freq.    1016.66  E(vib)   ...       0.02 
freq.    1026.24  E(vib)   ...       0.02 
freq.    1042.20  E(vib)   ...       0.02 
freq.    1043.88  E(vib)   ...       0.02 
freq.    1075.98  E(vib)   ...       0.02 
freq.    1085.43  E(vib)   ...       0.02 
freq.    1091.53  E(vib)   ...       0.02 
freq.    1102.46  E(vib)   ...       0.02 
freq.    1105.27  E(vib)   ...       0.02 
freq.    1117.40  E(vib)   ...       0.01 
freq.    1135.52  E(vib)   ...       0.01 
freq.    1137.26  E(vib)   ...       0.01 
freq.    1147.42  E(vib)   ...       0.01 
freq.    1168.89  E(vib)   ...       0.01 
freq.    1175.99  E(vib)   ...       0.01 
freq.    1177.63  E(vib)   ...       0.01 
freq.    1187.79  E(vib)   ...       0.01 
freq.    1194.91  E(vib)   ...       0.01 
freq.    1196.96  E(vib)   ...       0.01 
freq.    1211.17  E(vib)   ...       0.01 
freq.    1220.27  E(vib)   ...       0.01 
freq.    1238.56  E(vib)   ...       0.01 
freq.    1244.47  E(vib)   ...       0.01 
freq.    1246.50  E(vib)   ...       0.01 
freq.    1253.79  E(vib)   ...       0.01 
freq.    1265.54  E(vib)   ...       0.01 
freq.    1267.99  E(vib)   ...       0.01 
freq.    1268.55  E(vib)   ...       0.01 
freq.    1283.16  E(vib)   ...       0.01 
freq.    1293.18  E(vib)   ...       0.01 
freq.    1299.35  E(vib)   ...       0.01 
freq.    1305.26  E(vib)   ...       0.01 
freq.    1313.28  E(vib)   ...       0.01 
freq.    1314.37  E(vib)   ...       0.01 
freq.    1328.13  E(vib)   ...       0.01 
freq.    1357.87  E(vib)   ...       0.01 
freq.    1362.09  E(vib)   ...       0.01 
freq.    1374.43  E(vib)   ...       0.01 
freq.    1385.23  E(vib)   ...       0.00 
freq.    1390.81  E(vib)   ...       0.00 
freq.    1394.75  E(vib)   ...       0.00 
freq.    1400.20  E(vib)   ...       0.00 
freq.    1401.56  E(vib)   ...       0.00 
freq.    1407.72  E(vib)   ...       0.00 
freq.    1411.17  E(vib)   ...       0.00 
freq.    1412.54  E(vib)   ...       0.00 
freq.    1419.51  E(vib)   ...       0.00 
freq.    1433.12  E(vib)   ...       0.00 
freq.    1463.64  E(vib)   ...       0.00 
freq.    1465.55  E(vib)   ...       0.00 
freq.    1467.79  E(vib)   ...       0.00 
freq.    1469.58  E(vib)   ...       0.00 
freq.    1471.59  E(vib)   ...       0.00 
freq.    1473.39  E(vib)   ...       0.00 
freq.    1476.39  E(vib)   ...       0.00 
freq.    1476.79  E(vib)   ...       0.00 
freq.    1478.71  E(vib)   ...       0.00 
freq.    1481.33  E(vib)   ...       0.00 
freq.    1486.43  E(vib)   ...       0.00 
freq.    1492.89  E(vib)   ...       0.00 
freq.    1493.36  E(vib)   ...       0.00 
freq.    1493.67  E(vib)   ...       0.00 
freq.    1496.95  E(vib)   ...       0.00 
freq.    1497.96  E(vib)   ...       0.00 
freq.    1499.94  E(vib)   ...       0.00 
freq.    1502.30  E(vib)   ...       0.00 
freq.    1509.20  E(vib)   ...       0.00 
freq.    1512.79  E(vib)   ...       0.00 
freq.    1518.41  E(vib)   ...       0.00 
freq.    1537.38  E(vib)   ...       0.00 
freq.    1614.95  E(vib)   ...       0.00 
freq.    1649.34  E(vib)   ...       0.00 
freq.    2434.96  E(vib)   ...       0.00 
freq.    2634.75  E(vib)   ...       0.00 
freq.    3015.00  E(vib)   ...       0.00 
freq.    3017.20  E(vib)   ...       0.00 
freq.    3020.70  E(vib)   ...       0.00 
freq.    3022.64  E(vib)   ...       0.00 
freq.    3024.98  E(vib)   ...       0.00 
freq.    3028.05  E(vib)   ...       0.00 
freq.    3029.64  E(vib)   ...       0.00 
freq.    3031.51  E(vib)   ...       0.00 
freq.    3034.16  E(vib)   ...       0.00 
freq.    3034.35  E(vib)   ...       0.00 
freq.    3037.05  E(vib)   ...       0.00 
freq.    3039.81  E(vib)   ...       0.00 
freq.    3055.08  E(vib)   ...       0.00 
freq.    3067.72  E(vib)   ...       0.00 
freq.    3078.91  E(vib)   ...       0.00 
freq.    3081.06  E(vib)   ...       0.00 
freq.    3088.35  E(vib)   ...       0.00 
freq.    3090.07  E(vib)   ...       0.00 
freq.    3096.88  E(vib)   ...       0.00 
freq.    3098.04  E(vib)   ...       0.00 
freq.    3099.80  E(vib)   ...       0.00 
freq.    3102.06  E(vib)   ...       0.00 
freq.    3102.21  E(vib)   ...       0.00 
freq.    3102.62  E(vib)   ...       0.00 
freq.    3106.04  E(vib)   ...       0.00 
freq.    3107.63  E(vib)   ...       0.00 
freq.    3111.52  E(vib)   ...       0.00 
freq.    3115.64  E(vib)   ...       0.00 
freq.    3120.87  E(vib)   ...       0.00 
freq.    3122.22  E(vib)   ...       0.00 
freq.    3139.42  E(vib)   ...       0.00 
freq.    3150.93  E(vib)   ...       0.00 
freq.    3163.32  E(vib)   ...       0.00 
freq.    3175.72  E(vib)   ...       0.00 
freq.    3200.05  E(vib)   ...       0.00 
freq.    3210.66  E(vib)   ...       0.00 
freq.    3225.21  E(vib)   ...       0.00 

------------
INNER ENERGY
------------

The inner energy is: U= E(el) + E(ZPE) + E(vib) + E(rot) + E(trans)
    E(el)   - is the total energy from the electronic structure calculation
              = E(kin-el) + E(nuc-el) + E(el-el) + E(nuc-nuc)
    E(ZPE)  - the the zero temperature vibrational energy from the frequency calculation
    E(vib)  - the the finite temperature correction to E(ZPE) due to population
              of excited vibrational states
    E(rot)  - is the rotational thermal energy
    E(trans)- is the translational thermal energy

Summary of contributions to the inner energy U:
Electronic energy                ...  -1629.23039093 Eh
Zero point energy                ...      0.60178825 Eh     377.63 kcal/mol
Thermal vibrational correction   ...      0.02790833 Eh      17.51 kcal/mol
Thermal rotational correction    ...      0.00141627 Eh       0.89 kcal/mol
Thermal translational correction ...      0.00141627 Eh       0.89 kcal/mol
-----------------------------------------------------------------------
Total thermal energy                  -1628.59786182 Eh


Summary of corrections to the electronic energy:
(perhaps to be used in another calculation)
Total thermal correction                  0.03074087 Eh      19.29 kcal/mol
Non-thermal (ZPE) correction              0.60178825 Eh     377.63 kcal/mol
-----------------------------------------------------------------------
Total correction                          0.63252912 Eh     396.92 kcal/mol


--------
ENTHALPY
--------

The enthalpy is H = U + kB*T
                kB is Boltzmann's constant
Total thermal energy              ...  -1628.59786182 Eh 
Thermal Enthalpy correction       ...      0.00094421 Eh       0.59 kcal/mol
-----------------------------------------------------------------------
Total Enthalpy                    ...  -1628.59691761 Eh


WARNING (ORCA/SYM): The number of Z matrix atoms does not agree with
the number of centers in the basis set. The point group will therefore
be determined without considering basis set information.


Note: Only C1 symmetry has been detected, increase convergence thresholds 
      if your molecule has a higher symmetry. Symmetry factor of 1.0 is   
      used for the rotational entropy correction. 
 

Note: Rotational entropy computed according to Herzberg 
Infrared and Raman Spectra, Chapter V,1, Van Nostrand Reinhold, 1945 
Point Group:  C1, Symmetry Number:   1  
Rotational constants in cm-1:     0.007470     0.003162     0.002992 

Vibrational entropy computed according to the QRRHO of S. Grimme
Chem.Eur.J. 2012 18 9955 using a reference frequency of 100.0 cm-1


-------
ENTROPY
-------

The entropy contributions are T*S = T*(S(el)+S(vib)+S(rot)+S(trans))
     S(el)   - electronic entropy
     S(vib)  - vibrational entropy
     S(rot)  - rotational entropy
     S(trans)- translational entropy
The entropies will be listed as multiplied by the temperature to get
units of energy

Electronic entropy                ...      0.00000000 Eh      0.00 kcal/mol
Vibrational entropy               ...      0.04743256 Eh     29.76 kcal/mol
Rotational entropy                ...      0.01728384 Eh     10.85 kcal/mol
Translational entropy             ...      0.02096725 Eh     13.16 kcal/mol
-----------------------------------------------------------------------
Final entropy term                ...      0.08568365 Eh     53.77 kcal/mol

In case the symmetry of your molecule has not been determined correctly
or in case you have a reason to use a different symmetry number we print 
out the resulting rotational entropy values for sn=1,12:

 non-linear molecules -----------------------------------
|  sn= 1 | S(rot)=       0.01728384 Eh     10.85 kcal/mol|
|  sn= 2 | S(rot)=       0.01662938 Eh     10.44 kcal/mol|
|  sn= 3 | S(rot)=       0.01624655 Eh     10.19 kcal/mol|
|  sn= 4 | S(rot)=       0.01597493 Eh     10.02 kcal/mol|
|  sn= 5 | S(rot)=       0.01576424 Eh      9.89 kcal/mol|
|  sn= 6 | S(rot)=       0.01559209 Eh      9.78 kcal/mol|
|  sn= 7 | S(rot)=       0.01544655 Eh      9.69 kcal/mol|
|  sn= 8 | S(rot)=       0.01532047 Eh      9.61 kcal/mol|
|  sn= 9 | S(rot)=       0.01520926 Eh      9.54 kcal/mol|
|  sn=10 | S(rot)=       0.01510978 Eh      9.48 kcal/mol|
|  sn=11 | S(rot)=       0.01501979 Eh      9.43 kcal/mol|
|  sn=12 | S(rot)=       0.01493764 Eh      9.37 kcal/mol|
 linear molecules ---------------------------------------
|  Dinfh | S(rot)=       0.01081317 Eh      6.79 kcal/mol|
|  Cinfv | S(rot)=       0.01146763 Eh      7.20 kcal/mol|
 --------------------------------------------------------


-------------------
GIBBS FREE ENERGY
-------------------

The Gibbs free energy is G = H - T*S

Total enthalpy                    ...  -1628.59691761 Eh 
Total entropy correction          ...     -0.08568365 Eh    -53.77 kcal/mol
-----------------------------------------------------------------------
Final Gibbs free energy         ...  -1628.68260126 Eh

For completeness - the Gibbs free energy minus the electronic energy
G-E(el)                           ...      0.54778967 Eh    343.74 kcal/mol



--------------------------------
SUGGESTED CITATIONS FOR THIS RUN
--------------------------------

Below you find a list of papers that are relevant to this ORCA run
We neither can nor want to force you to cite these papers, but we appreciate if you do
You receive ORCA, which is the product of decades of hard work by many enthusiastic individuals, for free
The only thing we kindly ask in return is that you cite our papers,
We deeply appreciate it, if you show your appreciation for ORCA by not just citing the generic ORCA reference.

Please note that relegating all ORCA citations to the supporting information does *not* help us.
SI sections are not indexed - citations you put there will not count into any citation statistics
But we need these citations in order to attract the funding resources that allow us to do what we are doing

Therefore, if you are a happy ORCA user, please consider citing a few of the papers listed below in the main body of your paper

In addition to the list printed below, the program has created the file input.bibtex that contains the list in bibtex format
You can import this file easily into all common literature databanks and citation aid programs


List of essential papers. We consider these as the minimum necessary citations

  1. Neese, F.
     Software update: the ORCA program system, version 6.0
     WIRES Comput. Molec. Sci. 2025 15(1), e70019
     doi.org/10.1002/wcms.7019

List of papers to cite with high priority. The work reported in these papers was absolutely
necessary for this run to complete.
Our perspective: the developers of density functionals and basis sets usually get cited in chemistry papers
Good! But without the algorithms to do something with them, the functionals or basis sets would not do anything.
Hence, in our opinion, the algorithm design and method developments papers are equally worthy of getting cited

  1. Neese, F.
     The SHARK Integral Generation and Digestion System
     J. Comp. Chem. 2022 44(3), 381
     doi.org/10.1002/jcc.26942

List of suggested additional citations. These are papers that are important in the 'surrounding' of 
of this run, or papers that preceded the highly important papers. If you like your results we are grateful for a citation.

  1. Neese, F.
     The ORCA program system
     WIRES Comput. Molec. Sci. 2012 2(1), 73-78
     doi.org/10.1002/wcms.81
  2. Neese, F.
     Software update: the ORCA program system, version 4.0
     WIRES Comput. Molec. Sci. 2018 8(1), 1-6
     doi.org/10.1002/wcms.1327
  3. Neese, F.; Wennmohs, F.; Becker, U.; Riplinger, C.
     The ORCA quantum chemistry program package
     J. Chem. Phys. 2020 152(22), 224108
     doi.org/10.1063/5.0004608
  4. Neese, F.
     Software update: The ORCA program system—Version 5.0
     WIRES Comput. Molec. Sci. 2022 12(1), e1606
     doi.org/10.1002/wcms.1606

List of optional additional citations

  1. Neese, F.
     Approximate second-order SCF convergence for spin unrestricted wavefunctions
     Chem. Phys. Lett. 2000 325(1-3), 93-98
     doi.org/10.1016/s0009-2614(00)00662-x

Timings for individual modules:

Sum of individual times          ...      700.956 sec (=  11.683 min)
Numerical frequency calculation  ...      696.431 sec (=  11.607 min)  99.4 %
External energy and gradient     ...        4.525 sec (=   0.075 min)   0.6 %
                             ****ORCA TERMINATED NORMALLY****
TOTAL RUN TIME: 0 days 0 hours 11 minutes 41 seconds 190 msec
