
                                 *****************
                                 * O   R   C   A *
                                 *****************

                                            #,                                       
                                            ###                                      
                                            ####                                     
                                            #####                                    
                                            ######                                   
                                           ########,                                 
                                     ,,################,,,,,                         
                               ,,#################################,,                 
                          ,,##########################################,,             
                       ,#########################################, ''#####,          
                    ,#############################################,,   '####,        
                  ,##################################################,,,,####,       
                ,###########''''           ''''###############################       
              ,#####''   ,,,,##########,,,,          '''####'''          '####       
            ,##' ,,,,###########################,,,                        '##       
           ' ,,###''''                  '''############,,,                           
         ,,##''                                '''############,,,,        ,,,,,,###''
      ,#''                                            '''#######################'''  
     '                                                          ''''####''''         
             ,#######,   #######,   ,#######,      ##                                
            ,#'     '#,  ##    ##  ,#'     '#,    #''#        ,####,   ,####,        
            ##       ##  ##   ,#'  ##            #'  '#       #'       #'  '#        
            ##       ##  #######   ##           ,######,      #####,   #    #        
            '#,     ,#'  ##    ##  '#,     ,#' ,#      #,     #,   #   #,  ,#        
             '#######'   ##     ##  '#######'  #'      '#     '####' # '####'        



                #########################################################
                #                        -***-                          #
                #          Department of theory and spectroscopy        #
                #                                                       #
                #                      Frank Neese                      #
                #                                                       #
                #     Directorship, Architecture, Infrastructure        #
                #                    SHARK, DRIVERS                     #
                #        Core code/Algorithms in most modules           #
                #                                                       #
                #        Max Planck Institute fuer Kohlenforschung      #
                #                Kaiser Wilhelm Platz 1                 #
                #                 D-45470 Muelheim/Ruhr                 #
                #                      Germany                          #
                #                                                       #
                #                  All rights reserved                  #
                #                        -***-                          #
                #########################################################


                         Program Version 6.0.1  -  RELEASE   -


 With contributions from (in alphabetic order):
[Max-Planck-Institut fuer Kohlenforschung]                               
  Daniel Aravena         : Magnetic Suceptibility                        
  Michael Atanasov       : Ab Initio Ligand Field Theory (pilot matlab implementation)
  Alexander A. Auer      : GIAO ZORA, VPT2 properties, NMR spectrum      
  Ute Becker             : All parallelization in ORCA, NUMFREQ, NUMCALC 
  Giovanni Bistoni       : ED, misc. LED, open-shell LED, HFLD           
  Martin Brehm           : Molecular dynamics                            
  Dmytro Bykov           : pre 5.0 version of the SCF Hessian            
  Marcos Casanova-Páez   : Triplet and SCS-CIS(D). UHF-(DLPNO)-IP/EA/STEOM-CCSD. UHF-CVS-IP/STEOM-CCSD   
  Vijay G. Chilkuri      : MRCI spin determinant printing, contributions to CSF-ICE 
  Pauline Colinet        : FMM embedding                                 
  Dipayan Datta          : RHF DLPNO-CCSD density                        
  Achintya Kumar Dutta   : EOM-CC, STEOM-CC                              
  Nicolas Foglia         : Exact transition moments, OPA infrastructure, MCD improvements    
  Dmitry Ganyushin       : Spin-Orbit,Spin-Spin,Magnetic field MRCI      
  Miquel Garcia-Rates    : C-PCM and meta-GGA Hessian, CCSD/C-PCM, Gaussian charge scheme 
  Tiago L. C. Gouveia    : GS-ROHF, GS-ROCIS                             
  Yang Guo               : DLPNO-NEVPT2, F12-NEVPT2, CIM, IAO-localization        
  Andreas Hansen         : Spin unrestricted coupled pair/coupled cluster methods 
  Ingolf Harden          : AUTO-CI MPn and infrastructure                
  Benjamin Helmich-Paris : MC-RPA, TRAH-(SCF,CASSCF), AVAS, COSX integrals, SCF dyn. polar. 
  Lee Huntington         : MR-EOM, pCC                                   
  Robert Izsak           : Overlap fitted RIJCOSX, COSX-SCS-MP3, EOM     
  Riya Kayal             : Wick's Theorem for AUTO-CI, AUTO-CI UHF-CCSDT 
  Emily Kempfer          : AUTO-CI, RHF CISDT and CCSDT                  
  Christian Kollmar      : KDIIS, OOCD, Brueckner-CCSD(T), CCSD density, CASPT2, CASPT2-K, improved NEVPT2 
  Axel Koslowski         : Symmetry handling                             
  Simone Kossmann        : meta-GGA functionals, TD-DFT gradient, OOMP2, (MP2 Hessian; deprecated post 5.0) 
  Lucas Lang             : DCDCAS                                        
  Marvin Lechner         : AUTO-CI (C++ implementation), FIC-MRCC        
  Spencer Leger          : CASSCF response                               
  Dagmar Lenk            : GEPOL surface, SMD, ORCA-2-JSON               
  Dimitrios Liakos       : Extrapolation schemes; Compound Job, initial MDCI parallelization 
  Dimitrios Manganas     : Further ROCIS development; embedding schemes. LFT, Crystal Embedding 
  Dimitrios Pantazis     : SARC Basis sets                               
  Anastasios Papadopoulos: AUTO-CI, single reference methods and gradients 
  Taras Petrenko         : pre 6.0 DFT Hessian and TD-DFT gradient, (ASA, deprecated), ECA, 1-Electron XAS/XES, NRVS 
  Peter Pinski           : DLPNO-MP2, DLPNO-MP2 Gradient                 
  Christoph Reimann      : Effective Core Potentials                     
  Marius Retegan         : Local ZFS, SOC                                
  Christoph Riplinger    : Optimizer, TS searches, QM/MM, DLPNO-CCSD(T), (RO)-DLPNO pert. Triples 
  Michael Roemelt        : Original ROCIS implementation                 
  Masaaki Saitow         : Open-shell DLPNO-CCSD energy and density      
  Barbara Sandhoefer     : DKH picture change effects                    
  Kantharuban Sivalingam : CASSCF convergence/infrastructure, NEVPT2 and variants, FIC-MRCI 
  Bernardo de Souza      : ESD, SOC TD-DFT                               
  Georgi L. Stoychev     : AutoAux, RI-MP2 NMR, DLPNO-MP2 response, X2C  
  Van Anh Tran           : RI-MP2 g-tensors                              
  Willem Van den Heuvel  : Paramagnetic NMR                              
  Zikuan Wang            : NOTCH, Electric field optimization            
  Frank Wennmohs         : Technical directorship and infrastructure     
  Hang Xu                : AUTO-CI-Response properties                   
                                                                         
[FACCTs GmbH]                                                            
  Markus Bursch, Miquel Garcia-Rates, Christoph Riplinger, Bernardo de Souza, Georgi L. Stoychev 
                                                                 
  APM, Basis sets (HGBS, AHGBS, def-TZVP (Ac-Lr), def2-XVPD (La-Lu)), CI-OPT, improved COSX, DLPNO-Multilevel,           
  DOCKER, DRACO, updates on ESD, GOAT, IRC, LR-CPCM, MBIS, meta-GGA TD-DFT gradient, ML-optimized integration grids, 
  MM, NACMEs, nearIR, NEB, NEB-TS, NL-DFT gradient (VV10), 2- and 3-layer-ONIOM, interface openCOSMO-RS, QMMM,   
  Crystal-QMMM, SF, symmetry and pop. for TD-DFT, r2SCAN hybrids, SOLVATOR                                   
                                                                         
[Other institutions]                                                     
  V. Asgeirsson          : NEB                                           
  Christoph Bannwarth    : sTDA-DFT, sTD-DFT, PBEh-3c, B97-3c, D3        
  Sebastian Ehlert       : rSCAN, r2SCAN, r2SCAN-3c, D4, dhf basis sets  
  Marvin Friede          : D4 for Fr, Ra, Ac-Lr                          
  Lars Goerigk           : TD-DFT with DH, B97 family of functionals     
  Stefan Grimme          : VdW corrections, initial TS optimization, DFT functionals, gCP, sTDA/sTD-DF 
  Waldemar Hujo          : DFT-NL                                        
  H. Jonsson             : NEB                                           
  Holger Kruse           : gCP                                           
  Marcel Mueller         : wB97X-3c, vDZP basis set                      
  Hagen Neugebauer       : wr2SCAN                                       
  Tobias Risthaus        : range-separated hybrid DFT                    
  Lukas Wittmann         : regularized MP2, r2SCAN double-hybrids, wr2SCAN        
                                                                         
We gratefully acknowledge several colleagues who have allowed us to      
interface, adapt or use parts of their codes:                            
  Ed Valeev, F. Pavosevic, A. Kumar             : LibInt (2-el integral package), F12 methods 
  Garnet Chan, S. Sharma, J. Yang, R. Olivares  : DMRG                   
  Ulf Ekstrom                                   : XCFun DFT Library      
  Mihaly Kallay                                 : mrcc  (arbitrary order and MRCC methods)
  Frank Weinhold                                : gennbo (NPA and NBO analysis)           
  Simon Mueller                                 : openCOSMO-RS                            
  Christopher J. Cramer and Donald G. Truhlar   : smd solvation model                     
  S Lehtola, MJT Oliveira, MAL Marques          : LibXC Library                           
  Liviu Ungur et al                             : ANISO software                          


 Your calculation uses the libint2 library for the computation of 2-el integrals
 For citations please refer to: http://libint.valeyev.net

 Your ORCA version has been built with support for libXC version: 6.2.2
 For citations please refer to: https://libxc.gitlab.io

 This ORCA versions uses:
   CBLAS   interface :  Fast vector & matrix operations
   LAPACKE interface :  Fast linear algebra routines
   SCALAPACK package :  Parallel linear algebra routines
   Shared memory     :  Shared parallel matrices
   BLAS/LAPACK       :  OpenBLAS 0.3.27  USE64BITINT DYNAMIC_ARCH NO_AFFINITY Zen SINGLE_THREADED
        Core in use  :  Zen
   Copyright (c) 2011-2014, The OpenBLAS Project


NOTE: MaxCore=2560 MB was set to SCF,MP2,MDCI,CIPSI,MRCI and CIS
      => If you want to overwrite this, your respective input block should be placed after the MaxCore statement
Your calculation utilizes the atom-pairwise dispersion correction
with the zero-damping scheme (D30)


XCFun DFT library Copyright 2009-2010 Ulf Ekstrom and contributors.
See http://admol.org/xcfun for more information.
This is free software; see the source code for copying conditions.
There is ABSOLUTELY NO WARRANTY; not even for MERCHANTABILITY or FITNESS FOR A PARTICULAR PURPOSE.
For details see the documentation.
Scientific users of this library should cite U. Ekstrom, L. Visscher, R. Bast, A. J. Thorvaldsen and K. Ruud;
J.Chem.Theor.Comp. 2010, DOI: 10.1021/ct100117s
XCFun Version 0.99 

Warning: RI is on but no J-basis has been assigned. Assigning Def2/J (nothing to worry about!)
================================================================================

----- Orbital basis set information -----
Your calculation utilizes the basis: 6-31G**
   H-He, Li-Ne : W. J. Hehre, R. Ditchfield and J.A. Pople, J. Chem. Phys. 56, 2257 (1972).
                 Note: He and Ne are unpublished basis sets taken from the Gaussian program.
                 Note: Li and B from J. D. Dill and J. A. Pople, J. Chem. Phys. 62, 2921 (1975).
   Na - Ar     : M. M. Francl, W. J. Pietro, W. J. Hehre, J. S. Binkley, M. S. Gordon, 
                 D. J. DeFrees and J. A. Pople, J. Chem. Phys. 77, 3654 (1982).
   K - Zn      : V. A. Rassolov, J. A. Pople, M. A. Ratner, and T. L. Windus, J. Chem. Phys. 109, 1223 (1998).

----- AuxJ basis set information -----
Your calculation utilizes the auxiliary basis: def2/J
   F. Weigend, Phys. Chem. Chem. Phys. 8, 1057 (2006).

================================================================================
                                        WARNINGS
                       Please study these warnings very carefully!
================================================================================

WARNING: SinglePoint found together with IRC
         Switching on EnGrad - energy plus gradient calculation

================================================================================
                                       INPUT FILE
================================================================================
NAME = input.inp
|  1> # Automatically generated ORCA input
|  2> 
|  3> # Number of cores
|  4> %pal nprocs 24 end
|  5> # RAM per core
|  6> %maxcore 2560
|  7> 
|  8> ! wB97X-D3 
|  9> ! 6-31G** 
| 10> ! TightSCF 
| 11> ! NoSym 
| 12> ! IRC 
| 13> 
| 14> %geom
| 15>     Calc_Hess true
| 16>     end
| 17> 
| 18> 
| 19> *xyz 0 1 
| 20> C        -0.54482800      1.90131400      1.75786000
| 21> C        -0.74122800      0.52934600      2.02632000
| 22> C        -1.43591000      0.20865000      3.19852100
| 23> C        -1.93878000      1.17632400      4.06386200
| 24> C        -1.75690000      2.52217500      3.77293200
| 25> C        -1.05855700      2.87301900      2.62322100
| 26> H        -1.59016700     -0.83435700      3.45636700
| 27> H        -2.47279200      0.87596600      4.96190400
| 28> H        -2.14550500      3.29152300      4.43466200
| 29> H        -0.89874600      3.92260900      2.38983900
| 30> N         0.21078800      2.27686700      0.59142800
| 31> C        -0.54967800      2.83077200     -0.56118000
| 32> C         1.59036900      2.78520200      0.83093900
| 33> C        -0.46833700      4.37342300     -0.59957400
| 34> C        -0.02728100      2.24312500     -1.89363300
| 35> C        -2.02973500      2.42605600     -0.47075800
| 36> C         1.63533200      4.32867100      0.77510600
| 37> C         2.58164300      2.18820500     -0.19276500
| 38> C         2.10033800      2.33507700      2.20965100
| 39> H        -0.92679800      4.73774700     -1.52802700
| 40> H        -1.07310000      4.77431500      0.22517200
| 41> C         0.96025600      4.89997800     -0.47052800
| 42> H         0.87208300      2.73704300     -2.26432300
| 43> H         0.19972300      1.18283700     -1.75732600
| 44> H        -0.78896200      2.34682600     -2.67374300
| 45> H        -2.13856900      1.33785400     -0.44930500
| 46> H        -2.55188500      2.80800700     -1.35358400
| 47> H        -2.52008400      2.83465400      0.41473400
| 48> H         2.67913700      4.66323400      0.83139700
| 49> H         1.13246500      4.72427700      1.66787200
| 50> H         2.43544400      1.10703100     -0.25875000
| 51> H         2.47925500      2.60689100     -1.19391100
| 52> H         3.60978700      2.38630000      0.12912800
| 53> H         3.14055400      2.65683600      2.32144700
| 54> H         1.52496200      2.76299600      3.03251400
| 55> H         2.06437600      1.24571900      2.30112200
| 56> H         0.95147300      5.99491300     -0.42251700
| 57> H         1.54178600      4.64359500     -1.36514600
| 58> B        -0.12928500     -0.50515900      0.95749400
| 59> H         1.06767500     -0.43460500      0.81546500
| 60> C        -2.12713800     -3.74162800     -2.98391300
| 61> H        -1.87249400     -3.83193100     -4.04488800
| 62> H        -2.01256000     -4.71776900     -2.50952900
| 63> H        -3.17890900     -3.45296600     -2.91161300
| 64> C        -1.61691900     -1.29853500     -2.84797500
| 65> H        -1.01755600     -0.51877700     -2.37349400
| 66> H        -1.47814700     -1.23806800     -3.93126900
| 67> H        -2.66623800     -1.09233700     -2.62145200
| 68> C         0.59693300     -4.48553200     -2.33015900
| 69> H         1.66685300     -4.61893400     -2.14894800
| 70> H         0.05181700     -5.00623800     -1.53753600
| 71> H         0.35034800     -4.95032100     -3.28890600
| 72> C         1.05809800     -2.27547600     -3.41866900
| 73> H         0.70753000     -2.58275200     -4.40925100
| 74> C        -1.26376500     -2.68446200     -2.30915300
| 75> C         0.27893700     -2.99030600     -2.32410300
| 76> O        -1.56450200     -2.68861300     -0.89842900
| 77> O         0.71918800     -2.48144700     -1.04656400
| 78> B        -0.39392800     -2.38025500     -0.24491900
| 79> H         0.96263500     -1.19204200     -3.32949600
| 80> H         2.11871700     -2.52855800     -3.33936200
| 81> H        -0.66022800     -0.39431300     -0.13793500
| 82> C         2.14806200     -2.63500000      1.74938100
| 83> N         0.73991400     -2.83043900      2.05643300
| 84> C        -0.33997000     -2.25992800      1.33169400
| 85> C        -1.50164700     -2.72356400      2.01426000
| 86> C        -1.12789700     -3.49649600      3.09690400
| 87> C         0.27348900     -3.52550800      3.08770700
| 88> H         2.72664500     -3.40254200      2.26589300
| 89> H         2.46932200     -1.64300800      2.07227400
| 90> H         2.29020700     -2.71885200      0.67181500
| 91> H        -2.50779300     -2.50047300      1.68417400
| 92> H        -1.76489100     -3.98792400      3.81795900
| 93> H         0.95097400     -4.01516800      3.77648600
| 94> *
| 95> 
| 96> 
| 97>                          ****END OF INPUT****
================================================================================

                     *******************************
                     * Energy+Gradient Calculation *
                     *******************************

---------------------------------
CARTESIAN COORDINATES (ANGSTROEM)
---------------------------------
  C     -0.544828    1.901314    1.757860
  C     -0.741228    0.529346    2.026320
  C     -1.435910    0.208650    3.198521
  C     -1.938780    1.176324    4.063862
  C     -1.756900    2.522175    3.772932
  C     -1.058557    2.873019    2.623221
  H     -1.590167   -0.834357    3.456367
  H     -2.472792    0.875966    4.961904
  H     -2.145505    3.291523    4.434662
  H     -0.898746    3.922609    2.389839
  N      0.210788    2.276867    0.591428
  C     -0.549678    2.830772   -0.561180
  C      1.590369    2.785202    0.830939
  C     -0.468337    4.373423   -0.599574
  C     -0.027281    2.243125   -1.893633
  C     -2.029735    2.426056   -0.470758
  C      1.635332    4.328671    0.775106
  C      2.581643    2.188205   -0.192765
  C      2.100338    2.335077    2.209651
  H     -0.926798    4.737747   -1.528027
  H     -1.073100    4.774315    0.225172
  C      0.960256    4.899978   -0.470528
  H      0.872083    2.737043   -2.264323
  H      0.199723    1.182837   -1.757326
  H     -0.788962    2.346826   -2.673743
  H     -2.138569    1.337854   -0.449305
  H     -2.551885    2.808007   -1.353584
  H     -2.520084    2.834654    0.414734
  H      2.679137    4.663234    0.831397
  H      1.132465    4.724277    1.667872
  H      2.435444    1.107031   -0.258750
  H      2.479255    2.606891   -1.193911
  H      3.609787    2.386300    0.129128
  H      3.140554    2.656836    2.321447
  H      1.524962    2.762996    3.032514
  H      2.064376    1.245719    2.301122
  H      0.951473    5.994913   -0.422517
  H      1.541786    4.643595   -1.365146
  B     -0.129285   -0.505159    0.957494
  H      1.067675   -0.434605    0.815465
  C     -2.127138   -3.741628   -2.983913
  H     -1.872494   -3.831931   -4.044888
  H     -2.012560   -4.717769   -2.509529
  H     -3.178909   -3.452966   -2.911613
  C     -1.616919   -1.298535   -2.847975
  H     -1.017556   -0.518777   -2.373494
  H     -1.478147   -1.238068   -3.931269
  H     -2.666238   -1.092337   -2.621452
  C      0.596933   -4.485532   -2.330159
  H      1.666853   -4.618934   -2.148948
  H      0.051817   -5.006238   -1.537536
  H      0.350348   -4.950321   -3.288906
  C      1.058098   -2.275476   -3.418669
  H      0.707530   -2.582752   -4.409251
  C     -1.263765   -2.684462   -2.309153
  C      0.278937   -2.990306   -2.324103
  O     -1.564502   -2.688613   -0.898429
  O      0.719188   -2.481447   -1.046564
  B     -0.393928   -2.380255   -0.244919
  H      0.962635   -1.192042   -3.329496
  H      2.118717   -2.528558   -3.339362
  H     -0.660228   -0.394313   -0.137935
  C      2.148062   -2.635000    1.749381
  N      0.739914   -2.830439    2.056433
  C     -0.339970   -2.259928    1.331694
  C     -1.501647   -2.723564    2.014260
  C     -1.127897   -3.496496    3.096904
  C      0.273489   -3.525508    3.087707
  H      2.726645   -3.402542    2.265893
  H      2.469322   -1.643008    2.072274
  H      2.290207   -2.718852    0.671815
  H     -2.507793   -2.500473    1.684174
  H     -1.764891   -3.987924    3.817959
  H      0.950974   -4.015168    3.776486

----------------------------
CARTESIAN COORDINATES (A.U.)
----------------------------
  NO LB      ZA    FRAG     MASS         X           Y           Z
   0 C     6.0000    0    12.011   -1.029576    3.592963    3.321874
   1 C     6.0000    0    12.011   -1.400718    1.000319    3.829190
   2 C     6.0000    0    12.011   -2.713477    0.394291    6.044329
   3 C     6.0000    0    12.011   -3.663763    2.222930    7.679586
   4 C     6.0000    0    12.011   -3.320060    4.766220    7.129808
   5 C     6.0000    0    12.011   -2.000383    5.429219    4.957169
   6 H     1.0000    0     1.008   -3.004980   -1.576706    6.531587
   7 H     1.0000    0     1.008   -4.672900    1.655336    9.376640
   8 H     1.0000    0     1.008   -4.054417    6.220077    8.380297
   9 H     1.0000    0     1.008   -1.698384    7.412657    4.516141
  10 N     7.0000    0    14.007    0.398332    4.302655    1.117637
  11 C     6.0000    0    12.011   -1.038741    5.349384   -1.060477
  12 C     6.0000    0    12.011    3.005362    5.263269    1.570247
  13 C     6.0000    0    12.011   -0.885029    8.264572   -1.133031
  14 C     6.0000    0    12.011   -0.051554    4.238892   -3.578448
  15 C     6.0000    0    12.011   -3.835643    4.584581   -0.889604
  16 C     6.0000    0    12.011    3.090330    8.180003    1.464738
  17 C     6.0000    0    12.011    4.878598    4.135108   -0.364273
  18 C     6.0000    0    12.011    3.969064    4.412656    4.175635
  19 H     1.0000    0     1.008   -1.751394    8.953044   -2.887553
  20 H     1.0000    0     1.008   -2.027865    9.022148    0.425513
  21 C     6.0000    0    12.011    1.814621    9.259616   -0.889169
  22 H     1.0000    0     1.008    1.647998    5.172262   -4.278950
  23 H     1.0000    0     1.008    0.377422    2.235238   -3.320865
  24 H     1.0000    0     1.008   -1.490922    4.434858   -5.052642
  25 H     1.0000    0     1.008   -4.041310    2.528178   -0.849063
  26 H     1.0000    0     1.008   -4.822364    5.306364   -2.557903
  27 H     1.0000    0     1.008   -4.762269    5.356720    0.783734
  28 H     1.0000    0     1.008    5.062835    8.812235    1.571113
  29 H     1.0000    0     1.008    2.140049    8.927590    3.151821
  30 H     1.0000    0     1.008    4.602322    2.091985   -0.488967
  31 H     1.0000    0     1.008    4.685113    4.926310   -2.256165
  32 H     1.0000    0     1.008    6.821509    4.509453    0.244017
  33 H     1.0000    0     1.008    5.934787    5.020692    4.386899
  34 H     1.0000    0     1.008    2.881761    5.221306    5.730621
  35 H     1.0000    0     1.008    3.901105    2.354068    4.348490
  36 H     1.0000    0     1.008    1.798023   11.328744   -0.798441
  37 H     1.0000    0     1.008    2.913553    8.775123   -2.579752
  38 B     5.0000    0    10.810   -0.244313   -0.954612    1.809401
  39 H     1.0000    0     1.008    2.017613   -0.821284    1.541006
  40 C     6.0000    0    12.011   -4.019708   -7.070652   -5.638778
  41 H     1.0000    0     1.008   -3.538501   -7.241300   -7.643731
  42 H     1.0000    0     1.008   -3.803187   -8.915291   -4.742323
  43 H     1.0000    0     1.008   -6.007267   -6.525160   -5.502151
  44 C     6.0000    0    12.011   -3.055534   -2.453876   -5.381893
  45 H     1.0000    0     1.008   -1.922902   -0.980346   -4.485254
  46 H     1.0000    0     1.008   -2.793293   -2.339609   -7.429022
  47 H     1.0000    0     1.008   -5.038460   -2.064218   -4.953826
  48 C     6.0000    0    12.011    1.128040   -8.476427   -4.403362
  49 H     1.0000    0     1.008    3.149896   -8.728520   -4.060923
  50 H     1.0000    0     1.008    0.097920   -9.460419   -2.905522
  51 H     1.0000    0     1.008    0.662062   -9.354751   -6.215132
  52 C     6.0000    0    12.011    1.999515   -4.300026   -6.460348
  53 H     1.0000    0     1.008    1.337038   -4.880694   -8.332277
  54 C     6.0000    0    12.011   -2.388170   -5.072898   -4.363667
  55 C     6.0000    0    12.011    0.527115   -5.650859   -4.391918
  56 O     8.0000    0    15.999   -2.956480   -5.080742   -1.697785
  57 O     8.0000    0    15.999    1.359068   -4.689255   -1.977719
  58 B     5.0000    0    10.810   -0.744416   -4.498030   -0.462830
  59 H     1.0000    0     1.008    1.819117   -2.252633   -6.291836
  60 H     1.0000    0     1.008    4.003795   -4.778282   -6.310480
  61 H     1.0000    0     1.008   -1.247650   -0.745144   -0.260659
  62 C     6.0000    0    12.011    4.059249   -4.979428    3.305851
  63 N     7.0000    0    14.007    1.398235   -5.348755    3.886095
  64 C     6.0000    0    12.011   -0.642450   -4.270645    2.516537
  65 C     6.0000    0    12.011   -2.837702   -5.146790    3.806400
  66 C     6.0000    0    12.011   -2.131416   -6.607420    5.852300
  67 C     6.0000    0    12.011    0.516819   -6.662245    5.834921
  68 H     1.0000    0     1.008    5.152612   -6.429873    4.281917
  69 H     1.0000    0     1.008    4.666342   -3.104835    3.916030
  70 H     1.0000    0     1.008    4.327864   -5.137886    1.269546
  71 H     1.0000    0     1.008   -4.739042   -4.725209    3.182628
  72 H     1.0000    0     1.008   -3.335161   -7.536084    7.214897
  73 H     1.0000    0     1.008    1.797080   -7.587568    7.136524

--------------------------------
INTERNAL COORDINATES (ANGSTROEM)
--------------------------------
 C      0   0   0     0.000000000000     0.00000000     0.00000000
 C      1   0   0     1.411715242046     0.00000000     0.00000000
 C      2   1   0     1.399815770000   116.80362399     0.00000000
 C      3   2   1     1.392151663238   122.71966056     1.04031274
 C      4   3   2     1.388897229280   119.73864103     0.04101949
 C      5   4   3     1.390183384128   118.91869873   359.28328016
 H      3   2   1     1.085423135839   119.31431761   181.38386248
 H      4   3   2     1.087135308079   119.92457524   179.92915033
 H      5   4   3     1.086644736806   120.77510750   179.77358014
 H      6   5   4     1.087035363613   119.67558641   180.72795353
 N      1   2   3     1.439638567797   118.72581596   177.54234111
 C     11   1   2     1.487825422503   117.16292632   106.27151951
 C     11   1   2     1.489635434228   116.41284130   254.02819480
 C     12  11   1     1.545271032964   111.34627402    99.86728282
 C     12  11   1     1.547145312964   110.68331183   222.39792837
 C     12  11   1     1.537055594957   110.39996248   339.45734457
 C     13  11   1     1.545132858113   111.22432758   260.06104620
 C     13  11   1     1.544991728360   110.84289106   137.24002443
 C     13  11   1     1.537376881422   110.57815040    20.52639190
 H     14  12  11     1.097699156739   109.29096350   172.72852649
 H     14  12  11     1.098480152915   108.46335947   288.45439645
 C     17  13  11     1.527652891196   112.96563154   310.20048900
 H     15  12  11     1.090972809615   113.51690510   278.75135421
 H     15  12  11     1.092849970128   109.34329315    39.51605122
 H     15  12  11     1.095209320295   110.03905182   159.17715040
 H     16  12  11     1.093841242397   111.03325551   301.70893995
 H     16  12  11     1.094490262715   108.66542788   182.58382141
 H     16  12  11     1.091554189891   112.44042299    63.05624119
 H     17  13  11     1.097556356492   109.28810701   186.91350230
 H     17  13  11     1.098367177988   108.48733694    71.17941818
 H     18  13  11     1.093007495904   109.65801751   312.16981419
 H     18  13  11     1.089988340514   113.57146428    73.31875597
 H     18  13  11     1.095416275765   109.73179347   192.72572045
 H     19  13  11     1.094566821328   108.70953899   175.61171131
 H     19  13  11     1.091455784128   112.73360940   295.30229638
 H     19  13  11     1.093782913310   110.83599676    56.58130519
 H     22  17  13     1.096022286012   109.96397153   175.63351856
 H     22  17  13     1.097383592694   110.07080906   291.88821269
 B      2   1   3     1.608435217393   116.47251085   180.57153629
 H     39   2   1     1.207420119659   114.69238261    60.27275383
 C     39   2   1     5.477302012599   136.00887839   254.37570393
 H     41  39   2     1.094836128912   131.39407966   126.47992497
 H     41  39   2     1.091338421124   100.22005980   253.09801688
 H     41  39   2     1.093057764569    98.47231182     3.20468996
 C     41  39   2     2.499501145120    46.27925533    79.68328567
 H     45  41  39     1.091966466378   146.47504122    26.03350795
 H     45  41  39     1.093818913947    91.49375226   154.43550092
 H     45  41  39     1.093115112188    89.98262580   262.89844166
 C     43  41  39     2.625940086544    93.14817892   298.81511960
 H     49  43  41     1.093326267189   166.65376513   180.09470320
 H     49  43  41     1.093863525318    60.80244690   145.14093266
 H     49  43  41     1.093631010330    71.24450989   270.42106157
 C     49  43  41     2.506366832780   103.36557275   358.00593285
 H     53  49  43     1.094791834791    94.96521815   295.99645949
 C     41  39   2     1.522601046330    20.61205314   127.27189121
 C     53  49  43     1.521889786146    34.84263988    55.92206726
 O     55  41  39     1.442429262788   108.25218106     5.34479208
 O     56  53  49     1.443905925399   108.34364389   116.37282570
 B     58  56  53     1.375464196679   107.14825971   141.12857999
 H     53  49  43     1.091281009023   145.47229904    70.50986284
 H     53  49  43     1.093276160050    86.72518827   188.05618769
 H     39   2   1     1.222355103481   111.83474626   295.97381529
 C     40  39   2     2.623199062376   108.50553400   112.30704536
 N     63  40  39     1.454427077350    77.82636856   356.82695976
 C     64  63  40     1.420168607137   125.06312947    27.34800268
 C     65  64  63     1.424902851840   104.16729666   180.65146598
 C     66  65  64     1.381749242757   109.68347822     1.32589065
 C     64  63  40     1.328231628317   125.04525686   210.17523433
 H     63  40  39     1.091175355201   167.67201600   234.07822117
 H     63  40  39     1.091565850104    57.60353903   233.15685978
 H     63  40  39     1.090130654227    76.48537592   109.99084712
 H     66  65  64     1.082153471090   123.01172480   182.75221780
 H     67  66  65     1.080362507793   128.16366549   179.54045265
 H     68  64  63     1.083129425169   120.70836090   359.16181126

---------------------------
INTERNAL COORDINATES (A.U.)
---------------------------
 C      0   0   0     0.000000000000     0.00000000     0.00000000
 C      1   0   0     2.667755186549     0.00000000     0.00000000
 C      2   1   0     2.645268443244   116.80362399     0.00000000
 C      3   2   1     2.630785380403   122.71966056     1.04031274
 C      4   3   2     2.624635391501   119.73864103     0.04101949
 C      5   4   3     2.627065871930   118.91869873   359.28328016
 H      3   2   1     2.051152466157   119.31431761   181.38386248
 H      4   3   2     2.054388002785   119.92457524   179.92915033
 H      5   4   3     2.053460957431   120.77510750   179.77358014
 H      6   5   4     2.054199135116   119.67558641   180.72795353
 N      1   2   3     2.720522624967   118.72581596   177.54234111
 C     11   1   2     2.811582583616   117.16292632   106.27151951
 C     11   1   2     2.815003010075   116.41284130   254.02819480
 C     12  11   1     2.920139054984   111.34627402    99.86728282
 C     12  11   1     2.923680930882   110.68331183   222.39792837
 C     12  11   1     2.904614127080   110.39996248   339.45734457
 C     13  11   1     2.919877942356   111.22432758   260.06104620
 C     13  11   1     2.919611245774   110.84289106   137.24002443
 C     13  11   1     2.905221270509   110.57815040    20.52639190
 H     14  12  11     2.074350783673   109.29096350   172.72852649
 H     14  12  11     2.075826652558   108.46335947   288.45439645
 C     17  13  11     2.886845592054   112.96563154   310.20048900
 H     15  12  11     2.061639829728   113.51690510   278.75135421
 H     15  12  11     2.065187149006   109.34329315    39.51605122
 H     15  12  11     2.069645674676   110.03905182   159.17715040
 H     16  12  11     2.067060382119   111.03325551   301.70893995
 H     16  12  11     2.068286852774   108.66542788   182.58382141
 H     16  12  11     2.062738479229   112.44042299    63.05624119
 H     17  13  11     2.074080930313   109.28810701   186.91350230
 H     17  13  11     2.075613160885   108.48733694    71.17941818
 H     18  13  11     2.065484829581   109.65801751   312.16981419
 H     18  13  11     2.059779452738   113.57146428    73.31875597
 H     18  13  11     2.070036763835   109.73179347   192.72572045
 H     19  13  11     2.068431527587   108.70953899   175.61171131
 H     19  13  11     2.062552519286   112.73360940   295.30229638
 H     19  13  11     2.066950156119   110.83599676    56.58130519
 H     22  17  13     2.071181957237   109.96397153   175.63351856
 H     22  17  13     2.073754454049   110.07080906   291.88821269
 B      2   1   3     3.039502065027   116.47251085   180.57153629
 H     39   2   1     2.281693354742   114.69238261    60.27275383
 C     39   2   1    10.350600756587   136.00887839   254.37570393
 H     41  39   2     2.068940445165   131.39407966   126.47992497
 H     41  39   2     2.062330735350   100.22005980   253.09801688
 H     41  39   2     2.065579823592    98.47231182     3.20468996
 C     41  39   2     4.723372635699    46.27925533    79.68328567
 H     45  41  39     2.063517568880   146.47504122    26.03350795
 H     45  41  39     2.067018187464    91.49375226   154.43550092
 H     45  41  39     2.065688194886    89.98262580   262.89844166
 C     43  41  39     4.962307607653    93.14817892   298.81511960
 H     49  43  41     2.066087220009   166.65376513   180.09470320
 H     49  43  41     2.067102490737    60.80244690   145.14093266
 H     49  43  41     2.066663101087    71.24450989   270.42106157
 C     49  43  41     4.736346905098   103.36557275   358.00593285
 H     53  49  43     2.068856741407    94.96521815   295.99645949
 C     41  39   2     2.877298988786    20.61205314   127.27189121
 C     53  49  43     2.875954901829    34.84263988    55.92206726
 O     55  41  39     2.725796274223   108.25218106     5.34479208
 O     56  53  49     2.728586762151   108.34364389   116.37282570
 B     58  56  53     2.599250638737   107.14825971   141.12857999
 H     53  49  43     2.062222242202   145.47229904    70.50986284
 H     53  49  43     2.065992531240    86.72518827   188.05618769
 H     39   2   1     2.309916383980   111.83474626   295.97381529
 C     40  39   2     4.957127822650   108.50553400   112.30704536
 N     63  40  39     2.748468857951    77.82636856   356.82695976
 C     64  63  40     2.683729731482   125.06312947    27.34800268
 C     65  64  63     2.692676157420   104.16729666   180.65146598
 C     66  65  64     2.611127654564   109.68347822     1.32589065
 C     64  63  40     2.509994019932   125.04525686   210.17523433
 H     63  40  39     2.062022585413   167.67201600   234.07822117
 H     63  40  39     2.062760513837    57.60353903   233.15685978
 H     63  40  39     2.060048386681    76.48537592   109.99084712
 H     66  65  64     2.044973695233   123.01172480   182.75221780
 H     67  66  65     2.041589265085   128.16366549   179.54045265
 H     68  64  63     2.046817981160   120.70836090   359.16181126

---------------------
BASIS SET INFORMATION
---------------------
There are 5 groups of distinct atoms

 Group   1 Type C   : 10s4p1d contracted to 3s2p1d pattern {631/31/1}
 Group   2 Type H   : 4s1p contracted to 2s1p pattern {31/1}
 Group   3 Type N   : 10s4p1d contracted to 3s2p1d pattern {631/31/1}
 Group   4 Type B   : 10s4p1d contracted to 3s2p1d pattern {631/31/1}
 Group   5 Type O   : 10s4p1d contracted to 3s2p1d pattern {631/31/1}

Atom   0C    basis set group =>   1
Atom   1C    basis set group =>   1
Atom   2C    basis set group =>   1
Atom   3C    basis set group =>   1
Atom   4C    basis set group =>   1
Atom   5C    basis set group =>   1
Atom   6H    basis set group =>   2
Atom   7H    basis set group =>   2
Atom   8H    basis set group =>   2
Atom   9H    basis set group =>   2
Atom  10N    basis set group =>   3
Atom  11C    basis set group =>   1
Atom  12C    basis set group =>   1
Atom  13C    basis set group =>   1
Atom  14C    basis set group =>   1
Atom  15C    basis set group =>   1
Atom  16C    basis set group =>   1
Atom  17C    basis set group =>   1
Atom  18C    basis set group =>   1
Atom  19H    basis set group =>   2
Atom  20H    basis set group =>   2
Atom  21C    basis set group =>   1
Atom  22H    basis set group =>   2
Atom  23H    basis set group =>   2
Atom  24H    basis set group =>   2
Atom  25H    basis set group =>   2
Atom  26H    basis set group =>   2
Atom  27H    basis set group =>   2
Atom  28H    basis set group =>   2
Atom  29H    basis set group =>   2
Atom  30H    basis set group =>   2
Atom  31H    basis set group =>   2
Atom  32H    basis set group =>   2
Atom  33H    basis set group =>   2
Atom  34H    basis set group =>   2
Atom  35H    basis set group =>   2
Atom  36H    basis set group =>   2
Atom  37H    basis set group =>   2
Atom  38B    basis set group =>   4
Atom  39H    basis set group =>   2
Atom  40C    basis set group =>   1
Atom  41H    basis set group =>   2
Atom  42H    basis set group =>   2
Atom  43H    basis set group =>   2
Atom  44C    basis set group =>   1
Atom  45H    basis set group =>   2
Atom  46H    basis set group =>   2
Atom  47H    basis set group =>   2
Atom  48C    basis set group =>   1
Atom  49H    basis set group =>   2
Atom  50H    basis set group =>   2
Atom  51H    basis set group =>   2
Atom  52C    basis set group =>   1
Atom  53H    basis set group =>   2
Atom  54C    basis set group =>   1
Atom  55C    basis set group =>   1
Atom  56O    basis set group =>   5
Atom  57O    basis set group =>   5
Atom  58B    basis set group =>   4
Atom  59H    basis set group =>   2
Atom  60H    basis set group =>   2
Atom  61H    basis set group =>   2
Atom  62C    basis set group =>   1
Atom  63N    basis set group =>   3
Atom  64C    basis set group =>   1
Atom  65C    basis set group =>   1
Atom  66C    basis set group =>   1
Atom  67C    basis set group =>   1
Atom  68H    basis set group =>   2
Atom  69H    basis set group =>   2
Atom  70H    basis set group =>   2
Atom  71H    basis set group =>   2
Atom  72H    basis set group =>   2
Atom  73H    basis set group =>   2
---------------------------------
AUXILIARY/J BASIS SET INFORMATION
---------------------------------
There are 5 groups of distinct atoms

 Group   1 Type C   : 12s5p4d2f1g contracted to 6s4p3d1f1g pattern {711111/2111/211/2/1}
 Group   2 Type H   : 5s2p1d contracted to 3s1p1d pattern {311/2/1}
 Group   3 Type N   : 12s5p4d2f1g contracted to 6s4p3d1f1g pattern {711111/2111/211/2/1}
 Group   4 Type B   : 12s5p4d2f1g contracted to 6s4p3d1f1g pattern {711111/2111/211/2/1}
 Group   5 Type O   : 12s5p4d2f1g contracted to 6s4p3d1f1g pattern {711111/2111/211/2/1}

Atom   0C    basis set group =>   1
Atom   1C    basis set group =>   1
Atom   2C    basis set group =>   1
Atom   3C    basis set group =>   1
Atom   4C    basis set group =>   1
Atom   5C    basis set group =>   1
Atom   6H    basis set group =>   2
Atom   7H    basis set group =>   2
Atom   8H    basis set group =>   2
Atom   9H    basis set group =>   2
Atom  10N    basis set group =>   3
Atom  11C    basis set group =>   1
Atom  12C    basis set group =>   1
Atom  13C    basis set group =>   1
Atom  14C    basis set group =>   1
Atom  15C    basis set group =>   1
Atom  16C    basis set group =>   1
Atom  17C    basis set group =>   1
Atom  18C    basis set group =>   1
Atom  19H    basis set group =>   2
Atom  20H    basis set group =>   2
Atom  21C    basis set group =>   1
Atom  22H    basis set group =>   2
Atom  23H    basis set group =>   2
Atom  24H    basis set group =>   2
Atom  25H    basis set group =>   2
Atom  26H    basis set group =>   2
Atom  27H    basis set group =>   2
Atom  28H    basis set group =>   2
Atom  29H    basis set group =>   2
Atom  30H    basis set group =>   2
Atom  31H    basis set group =>   2
Atom  32H    basis set group =>   2
Atom  33H    basis set group =>   2
Atom  34H    basis set group =>   2
Atom  35H    basis set group =>   2
Atom  36H    basis set group =>   2
Atom  37H    basis set group =>   2
Atom  38B    basis set group =>   4
Atom  39H    basis set group =>   2
Atom  40C    basis set group =>   1
Atom  41H    basis set group =>   2
Atom  42H    basis set group =>   2
Atom  43H    basis set group =>   2
Atom  44C    basis set group =>   1
Atom  45H    basis set group =>   2
Atom  46H    basis set group =>   2
Atom  47H    basis set group =>   2
Atom  48C    basis set group =>   1
Atom  49H    basis set group =>   2
Atom  50H    basis set group =>   2
Atom  51H    basis set group =>   2
Atom  52C    basis set group =>   1
Atom  53H    basis set group =>   2
Atom  54C    basis set group =>   1
Atom  55C    basis set group =>   1
Atom  56O    basis set group =>   5
Atom  57O    basis set group =>   5
Atom  58B    basis set group =>   4
Atom  59H    basis set group =>   2
Atom  60H    basis set group =>   2
Atom  61H    basis set group =>   2
Atom  62C    basis set group =>   1
Atom  63N    basis set group =>   3
Atom  64C    basis set group =>   1
Atom  65C    basis set group =>   1
Atom  66C    basis set group =>   1
Atom  67C    basis set group =>   1
Atom  68H    basis set group =>   2
Atom  69H    basis set group =>   2
Atom  70H    basis set group =>   2
Atom  71H    basis set group =>   2
Atom  72H    basis set group =>   2
Atom  73H    basis set group =>   2


           ************************************************************
           *        Program running with 24 parallel MPI-processes    *
           *              working on a common directory               *
           ************************************************************
------------------------------------------------------------------------------
                             ORCA STARTUP CALCULATIONS
                           -- RI-GTO INTEGRALS CHOSEN --
------------------------------------------------------------------------------
------------------------------------------------------------------------------
                   ___                                                        
                  /   \      - P O W E R E D   B Y -                         
                 /     \                                                     
                 |  |  |   _    _      __       _____    __    __             
                 |  |  |  | |  | |    /  \     |  _  \  |  |  /  |          
                  \  \/   | |  | |   /    \    | | | |  |  | /  /          
                 / \  \   | |__| |  /  /\  \   | |_| |  |  |/  /          
                |  |  |   |  __  | /  /__\  \  |    /   |      \           
                |  |  |   | |  | | |   __   |  |    \   |  |\   \          
                \     /   | |  | | |  |  |  |  | |\  \  |  | \   \       
                 \___/    |_|  |_| |__|  |__|  |_| \__\ |__|  \__/        
                                                                              
                      - O R C A' S   B I G   F R I E N D -                    
                                      &                                       
                       - I N T E G R A L  F E E D E R -                       
                                                                              
 v1 FN, 2020, v2 2021, v3 2022-2024                                           
------------------------------------------------------------------------------


----------------------
SHARK INTEGRAL PACKAGE
----------------------

Number of atoms                             ...     74
Number of basis functions                   ...    658
Number of shells                            ...    318
Maximum angular momentum                    ...      2
Integral batch strategy                     ... SHARK/LIBINT Hybrid
RI-J (if used) integral strategy            ... SPLIT-RIJ (Revised 2003 algorithm where possible)
Printlevel                                  ...      1
Contraction scheme used                     ... SEGMENTED contraction
Prescreening option                         ... SCHWARTZ
   Thresh                                   ... 2.500e-11
   Tcut                                     ... 2.500e-12
   Tpresel                                  ... 2.500e-12 
Coulomb Range Separation                    ... NOT USED
Exchange Range Separation                   ... Long Range
   Mu parameter                             ... 2.500e-01
   Scaling (regular/separated)              ... 1.957e-01 8.043e-01
Multipole approximations                    ... NOT USED
Finite Nucleus Model                        ... NOT USED
CABS basis                                  ... NOT available
Auxiliary Coulomb fitting basis             ... AVAILABLE
   # of basis functions in Aux-J            ...   2030
   # of shells in Aux-J                     ...    690
   Maximum angular momentum in Aux-J        ...      4
Auxiliary J/K fitting basis                 ... NOT available
Auxiliary Correlation fitting basis         ... NOT available
Auxiliary 'external' fitting basis          ... NOT available

Checking pre-screening integrals            ... done (  0.0 sec) Dimension = 318
Check shell pair data                       ... done (  0.0 sec)
Shell pair information
Shell pair cut-off parameter TPreSel        ...   2.5e-12
Total number of shell pairs                 ...     50721
Shell pairs after pre-screening             ...     32176
Total number of primitive shell pairs       ...    239193
Primitive shell pairs kept                  ...     83727
          la=0 lb=0:  10629 shell pairs
          la=1 lb=0:  12293 shell pairs
          la=1 lb=1:   3612 shell pairs
          la=2 lb=0:   3427 shell pairs
          la=2 lb=1:   1944 shell pairs
          la=2 lb=2:    271 shell pairs

Calculating one electron integrals          ... done (  0.0 sec)
Calculating RI/J V-Matrix + Cholesky decomp.... done (  0.3 sec)
Calculating Nuclear repulsion               ... done (  0.0 sec) ENN=   3590.191222258995 Eh

Diagonalization of the overlap matrix:
Smallest eigenvalue                        ... 4.092e-04
Time for diagonalization                   ...    0.064 sec
Threshold for overlap eigenvalues          ... 1.000e-07
Number of eigenvalues below threshold      ... 0
Time for construction of square roots      ...    0.041 sec
Total time needed                          ...    0.114 sec

-------------------
DFT GRID GENERATION
-------------------

General Integration Accuracy     IntAcc      ... 4.388
Radial Grid Type                 RadialGrid  ... OptM3 with GC (2021)
Angular Grid (max. ang.)         AngularGrid ... 4 (Lebedev-302)
Angular grid pruning method      GridPruning ... 4 (adaptive)
Weight generation scheme         WeightScheme... mBecke (2022)
Basis function cutoff            BFCut       ... 1.0000e-11
Integration weight cutoff        WCut        ... 1.0000e-14
Partially contracted basis set               ... off
Rotationally invariant grid construction     ... off
Angular grids for H and He will be reduced by one unit

Total number of grid points                  ...   319452
Total number of batches                      ...     5018
Average number of points per batch           ...       63
Average number of grid points per atom       ...     4317

--------------------
COSX GRID GENERATION
--------------------

GRIDX 1
-------
General Integration Accuracy     IntAcc      ... 3.816
Radial Grid Type                 RadialGrid  ... OptM3 with GC (2021)
Angular Grid (max. ang.)         AngularGrid ... 1 (Lebedev-50)
Angular grid pruning method      GridPruning ... 4 (adaptive)
Weight generation scheme         WeightScheme... mBecke (2022)
Basis function cutoff            BFCut       ... 1.0000e-11
Integration weight cutoff        WCut        ... 1.0000e-14
Partially contracted basis set               ... on
Rotationally invariant grid construction     ... off
Angular grids for H and He will be reduced by one unit

Total number of grid points                  ...    40567
Total number of batches                      ...      350
Average number of points per batch           ...      115
Average number of grid points per atom       ...      548
UseSFitting                                  ... on

GRIDX 2
-------
General Integration Accuracy     IntAcc      ... 4.020
Radial Grid Type                 RadialGrid  ... OptM3 with GC (2021)
Angular Grid (max. ang.)         AngularGrid ... 2 (Lebedev-110)
Angular grid pruning method      GridPruning ... 4 (adaptive)
Weight generation scheme         WeightScheme... mBecke (2022)
Basis function cutoff            BFCut       ... 1.0000e-11
Integration weight cutoff        WCut        ... 1.0000e-14
Partially contracted basis set               ... on
Rotationally invariant grid construction     ... off
Angular grids for H and He will be reduced by one unit

Total number of grid points                  ...    84122
Total number of batches                      ...      701
Average number of points per batch           ...      120
Average number of grid points per atom       ...     1137
UseSFitting                                  ... on

GRIDX 3
-------
General Integration Accuracy     IntAcc      ... 4.338
Radial Grid Type                 RadialGrid  ... OptM3 with GC (2021)
Angular Grid (max. ang.)         AngularGrid ... 3 (Lebedev-194)
Angular grid pruning method      GridPruning ... 4 (adaptive)
Weight generation scheme         WeightScheme... mBecke (2022)
Basis function cutoff            BFCut       ... 1.0000e-11
Integration weight cutoff        WCut        ... 1.0000e-14
Partially contracted basis set               ... on
Rotationally invariant grid construction     ... off
Angular grids for H and He will be reduced by one unit

Total number of grid points                  ...   182025
Total number of batches                      ...     1458
Average number of points per batch           ...      124
Average number of grid points per atom       ...     2460
UseSFitting                                  ... on
Initializing property integral containers    ... done (  0.0 sec)

SHARK setup successfully completed in   4.5 seconds

Maximum memory used throughout the entire STARTUP-calculation: 100.6 MB


           ************************************************************
           *        Program running with 24 parallel MPI-processes    *
           *              working on a common directory               *
           ************************************************************
-------------------------------------------------------------------------------
                                 ORCA GUESS
                   Start orbitals & Density for SCF / CASSCF
-------------------------------------------------------------------------------

------------
SCF SETTINGS
------------
Hamiltonian:
 Density Functional     Method          .... DFT(GTOs)
 Exchange Functional    Exchange        .... WB97X-D3
 Correlation Functional Correlation     .... WB97X-D3
 Gradients option       PostSCFGGA      .... off
 Hybrid DFT is turned on
   Fraction HF Exchange ScalHFX         ....  0.195728
   Scaling of DF-GGA-X  ScalDFX         ....  0.000000
   Scaling of DF-GGA-C  ScalDFC         ....  1.000000
   Scaling of DF-LDA-C  ScalLDAC        ....  1.000000
   Perturbative correction              ....  0.000000
 Long-range corrected/Screened/Range-Separated Hybrid DFT is turned on
   Amount of maximum screened exact exchange              ....  0.804272
   Range separation parameter mu (erf(mu*r12)/r12)        ....  0.250000
 RI-approximation to the Coulomb term is turned on
   Number of AuxJ basis functions       .... 2030
   RIJ-COSX (HFX calculated with COS-X)).... on


General Settings:
 Integral files         IntName         .... input
 Hartree-Fock type      HFTyp           .... RHF
 Total Charge           Charge          ....    0
 Multiplicity           Mult            ....    1
 Number of Electrons    NEL             ....  238
 Basis Dimension        Dim             ....  658
 Nuclear Repulsion      ENuc            ....   3590.1912222590 Eh

Convergence Acceleration:
 AO-DIIS                CNVDIIS         .... on
   Start iteration      DIISMaxIt       ....    12
   Startup error        DIISStart       ....  0.200000
   # of expansion vecs  DIISMaxEq       ....     5
   Bias factor          DIISBfac        ....   1.050
   Max. coefficient     DIISMaxC        ....  10.000
 MO-DIIS                CNVKDIIS        .... off
 Trust-Rad. Augm. Hess. CNVTRAH         .... auto
   Auto Start mean grad. ratio tolernc. ....  1.125000
   Auto Start start iteration           ....    50
   Auto Start num. interpolation iter.  ....    10
   Max. Number of Micro iterations      ....    24
   Max. Number of Macro iterations      .... Maxiter - #DIIS iter
   Number of Davidson start vectors     ....     2
   Converg. threshold    (grad. norm)   ....   1.000e-05
   Grad. Scal. Fac. for Micro threshold ....   0.100
   Minimum threshold for Micro iter.    ....   1.000e-02
   NR start threshold (gradient norm)   ....   1.000e-04
   Initial trust radius                 ....   0.400
   Minimum AH scaling param. (alpha)    ....   1.000
   Maximum AH scaling param. (alpha)    .... 1000.000
   Quad. conv. algorithm                .... NR
   White noise on init. David. guess    .... on
   Maximum white noise                  ....   0.010
   Pseudo random numbers                .... off
   Inactive MOs                         .... canonical
   Orbital update algorithm             .... Taylor
   Preconditioner                       .... Diag
   Full preconditioner red. dimension   ....   250
 SOSCF                  CNVSOSCF        .... on
   Start iteration      SOSCFMaxIt      ....   150
   Startup grad/error   SOSCFStart      ....  0.003300
   Hessian update       SOSCFHessUp     .... L-BFGS
 Level Shifting         CNVShift        .... on
   Level shift para.    LevelShift      ....    0.2500
   Turn off err/grad.   ShiftErr        ....    0.0010
 Zerner damping         CNVZerner       .... off
 Static damping         CNVDamp         .... on
   Fraction old density DampFac         ....    0.7000
   Max. Damping (<1)    DampMax         ....    0.9800
   Min. Damping (>=0)   DampMin         ....    0.0000
   Turn off err/grad.   DampErr         ....    0.1000

SCF Procedure:
 Maximum # iterations   MaxIter         ....   125
 SCF integral mode      SCFMode         .... Direct
   Integral package                     .... SHARK and LIBINT hybrid scheme
 Reset frequency        DirectResetFreq ....    20
 Integral Threshold     Thresh          ....  2.500e-11 Eh
 Primitive CutOff       TCut            ....  2.500e-12 Eh

Convergence Tolerance:
 Convergence Check Mode ConvCheckMode   .... Total+1el-Energy
 Convergence forced     ConvForced      .... 0
 Energy Change          TolE            ....  1.000e-08 Eh
 1-El. energy change                    ....  1.000e-05 Eh
 Orbital Gradient       TolG            ....  1.000e-05
 Orbital Rotation angle TolX            ....  1.000e-05
 DIIS Error             TolErr          ....  5.000e-07

------------------------------
INITIAL GUESS: MODEL POTENTIAL
------------------------------
Loading Hartree-Fock densities                     ... done
Calculating cut-offs                               ... done
Initializing the effective Hamiltonian             ... done
Setting up the integral package (SHARK)            ... done
Starting the Coulomb interaction                   ... done (   0.4 sec)
Making the grid                                    ... done (   0.4 sec)
Mapping shells                                     ... done
Starting the XC term evaluation                    ... done (   0.1 sec)
  promolecular density results
     # of electrons  =    238.003914362
     EX              =   -182.563273609
     EC              =     -7.975912272
     EX+EC           =   -190.539185880
Transforming the Hamiltonian                       ... done (   0.1 sec)
Diagonalizing the Hamiltonian                      ... done (   0.1 sec)
Back transforming the eigenvectors                 ... done (   0.1 sec)
Now organizing SCF variables                       ... done
                      ------------------
                      INITIAL GUESS DONE (   1.1 sec)
                      ------------------
             **** ENERGY FILE WAS UPDATED (input.en.tmp) ****
Finished Guess after   1.6 sec
Maximum memory used throughout the entire GUESS-calculation: 64.6 MB


           ************************************************************
           *        Program running with 24 parallel MPI-processes    *
           *              working on a common directory               *
           ************************************************************

-------------------------------------------------------------------------------------------
                                      ORCA LEAN-SCF
                              memory conserving SCF solver
-------------------------------------------------------------------------------------------

----------------------------------------D-I-I-S--------------------------------------------
Iteration    Energy (Eh)           Delta-E    RMSDP     MaxDP     DIISErr   Damp  Time(sec)
-------------------------------------------------------------------------------------------
               ***  Starting incremental Fock matrix formation  ***
    1    -1324.6405617206723946     0.00e+00  1.20e-03  5.08e-02  1.90e-01  0.700  10.0
    2    -1324.9746872264554440    -3.34e-01  9.23e-04  3.95e-02  9.89e-02  0.700   4.8
                               ***Turning on AO-DIIS***
    3    -1325.1509280772784223    -1.76e-01  4.69e-04  2.10e-02  5.13e-02  0.700   5.4
    4    -1325.2558278476876694    -1.05e-01  9.99e-04  3.88e-02  3.20e-02  0.000   4.3
    5    -1325.4784569349326375    -2.23e-01  9.09e-05  3.86e-03  4.28e-03  0.000   5.1
                              *** Initializing SOSCF ***
---------------------------------------S-O-S-C-F--------------------------------------
Iteration    Energy (Eh)           Delta-E    RMSDP     MaxDP     MaxGrad    Time(sec)
--------------------------------------------------------------------------------------
    6    -1325.4789503688411969    -4.93e-04  4.87e-05  1.71e-03  2.62e-03     4.0
               *** Restarting incremental Fock matrix formation ***
    7    -1325.4791197852123332    -1.69e-04  3.03e-05  1.19e-03  1.28e-03     9.7
    8    -1325.4791540543724295    -3.43e-05  3.38e-05  1.24e-03  4.07e-04     6.3
    9    -1325.4791628038915405    -8.75e-06  1.19e-05  4.04e-04  2.31e-04     6.1
   10    -1325.4791658606422970    -3.06e-06  2.78e-06  1.18e-04  4.63e-05     5.4
   11    -1325.4791659877696475    -1.27e-07  1.00e-06  7.03e-05  2.04e-05     5.0
   12    -1325.4791660567675535    -6.90e-08  3.52e-07  2.26e-05  8.01e-06     3.7
   13    -1325.4791660353107545     2.15e-08  1.50e-07  6.50e-06  3.25e-06     3.1
   14    -1325.4791660326723104     2.64e-09  4.13e-08  2.85e-06  1.13e-06     2.5
                 **** Energy Check signals convergence ****

               *****************************************************
               *                     SUCCESS                       *
               *           SCF CONVERGED AFTER  14 CYCLES          *
               *****************************************************

Recomputing exchange energy using gridx3       ... done (   17.247 sec)
Old exchange energy                            :    -62.153465956 Eh
New exchange energy                            :    -62.153479118 Eh
Exchange energy change after final integration :     -0.000013162 Eh
Total energy after final integration           :  -1325.479179194 Eh
             **** ENERGY FILE WAS UPDATED (input.en.tmp) ****

----------------
TOTAL SCF ENERGY
----------------

Total Energy       :      -1325.47917919436986 Eh          -36068.12213 eV

Components:
Nuclear Repulsion  :       3590.19122225899491 Eh           97694.06983 eV
Electronic Energy  :      -4915.67038829166813 Eh         -133762.19160 eV
One Electron Energy:      -8942.82254517894035 Eh         -243346.57296 eV
Two Electron Energy:       4027.15215688727267 Eh          109584.38135 eV

Virial components:
Potential Energy   :      -2641.68513045504824 Eh          -71883.90691 eV
Kinetic Energy     :       1316.20595126067815 Eh           35815.78477 eV
Virial Ratio       :          2.00704542319142

DFT components:
N(Alpha)           :      119.000109106960 electrons
N(Beta)            :      119.000109106960 electrons
N(Total)           :      238.000218213920 electrons
E(XC)              :     -133.927116664061 Eh       

---------------
SCF CONVERGENCE
---------------

  Last Energy change         ...   -2.6384e-09  Tolerance :   1.0000e-08
  Last MAX-Density change    ...    2.8481e-06  Tolerance :   1.0000e-07
  Last RMS-Density change    ...    4.1250e-08  Tolerance :   5.0000e-09
  Last DIIS Error            ...    2.6221e-03  Tolerance :   5.0000e-07
  Last Orbital Gradient      ...    1.1272e-06  Tolerance :   1.0000e-05
  Last Orbital Rotation      ...    3.0027e-06  Tolerance :   1.0000e-05


----------------
ORBITAL ENERGIES
----------------

  NO   OCC          E(Eh)            E(eV) 
   0   2.0000     -19.247546      -523.7523 
   1   2.0000     -19.244027      -523.6566 
   2   2.0000     -14.518311      -395.0633 
   3   2.0000     -14.389256      -391.5516 
   4   2.0000     -10.352410      -281.7034 
   5   2.0000     -10.349973      -281.6371 
   6   2.0000     -10.347658      -281.5741 
   7   2.0000     -10.330229      -281.0998 
   8   2.0000     -10.311992      -280.6036 
   9   2.0000     -10.304160      -280.3905 
  10   2.0000     -10.301685      -280.3231 
  11   2.0000     -10.301173      -280.3092 
  12   2.0000     -10.297099      -280.1983 
  13   2.0000     -10.282970      -279.8138 
  14   2.0000     -10.278699      -279.6976 
  15   2.0000     -10.277557      -279.6665 
  16   2.0000     -10.277066      -279.6532 
  17   2.0000     -10.269072      -279.4356 
  18   2.0000     -10.262134      -279.2469 
  19   2.0000     -10.260797      -279.2105 
  20   2.0000     -10.259789      -279.1830 
  21   2.0000     -10.257168      -279.1117 
  22   2.0000     -10.256838      -279.1028 
  23   2.0000     -10.256535      -279.0945 
  24   2.0000     -10.253864      -279.0218 
  25   2.0000     -10.247637      -278.8524 
  26   2.0000     -10.247635      -278.8523 
  27   2.0000     -10.246465      -278.8205 
  28   2.0000     -10.244945      -278.7791 
  29   2.0000     -10.239856      -278.6406 
  30   2.0000      -6.892778      -187.5620 
  31   2.0000      -6.785571      -184.6448 
  32   2.0000      -1.177000       -32.0278 
  33   2.0000      -1.130483       -30.7620 
  34   2.0000      -1.105862       -30.0920 
  35   2.0000      -1.018485       -27.7144 
  36   2.0000      -0.943403       -25.6713 
  37   2.0000      -0.935476       -25.4556 
  38   2.0000      -0.923982       -25.1428 
  39   2.0000      -0.900018       -24.4907 
  40   2.0000      -0.889087       -24.1933 
  41   2.0000      -0.867594       -23.6084 
  42   2.0000      -0.865900       -23.5623 
  43   2.0000      -0.838125       -22.8065 
  44   2.0000      -0.826047       -22.4779 
  45   2.0000      -0.822854       -22.3910 
  46   2.0000      -0.821423       -22.3520 
  47   2.0000      -0.800876       -21.7930 
  48   2.0000      -0.791344       -21.5336 
  49   2.0000      -0.777936       -21.1687 
  50   2.0000      -0.766914       -20.8688 
  51   2.0000      -0.765854       -20.8399 
  52   2.0000      -0.735287       -20.0082 
  53   2.0000      -0.706747       -19.2316 
  54   2.0000      -0.701501       -19.0888 
  55   2.0000      -0.699078       -19.0229 
  56   2.0000      -0.677640       -18.4395 
  57   2.0000      -0.666417       -18.1341 
  58   2.0000      -0.657640       -17.8953 
  59   2.0000      -0.656971       -17.8771 
  60   2.0000      -0.654469       -17.8090 
  61   2.0000      -0.635843       -17.3022 
  62   2.0000      -0.618242       -16.8232 
  63   2.0000      -0.596160       -16.2223 
  64   2.0000      -0.583507       -15.8780 
  65   2.0000      -0.571213       -15.5435 
  66   2.0000      -0.568464       -15.4687 
  67   2.0000      -0.563623       -15.3370 
  68   2.0000      -0.555886       -15.1264 
  69   2.0000      -0.552765       -15.0415 
  70   2.0000      -0.548931       -14.9372 
  71   2.0000      -0.545636       -14.8475 
  72   2.0000      -0.539293       -14.6749 
  73   2.0000      -0.534880       -14.5548 
  74   2.0000      -0.532628       -14.4935 
  75   2.0000      -0.524485       -14.2720 
  76   2.0000      -0.513484       -13.9726 
  77   2.0000      -0.513188       -13.9645 
  78   2.0000      -0.507789       -13.8176 
  79   2.0000      -0.505415       -13.7530 
  80   2.0000      -0.501000       -13.6329 
  81   2.0000      -0.500121       -13.6090 
  82   2.0000      -0.495142       -13.4735 
  83   2.0000      -0.494001       -13.4424 
  84   2.0000      -0.490950       -13.3594 
  85   2.0000      -0.488931       -13.3045 
  86   2.0000      -0.486143       -13.2286 
  87   2.0000      -0.481506       -13.1025 
  88   2.0000      -0.474014       -12.8986 
  89   2.0000      -0.470498       -12.8029 
  90   2.0000      -0.464995       -12.6531 
  91   2.0000      -0.461755       -12.5650 
  92   2.0000      -0.459106       -12.4929 
  93   2.0000      -0.456452       -12.4207 
  94   2.0000      -0.453770       -12.3477 
  95   2.0000      -0.452953       -12.3255 
  96   2.0000      -0.442936       -12.0529 
  97   2.0000      -0.438597       -11.9348 
  98   2.0000      -0.436044       -11.8654 
  99   2.0000      -0.430755       -11.7214 
 100   2.0000      -0.427365       -11.6292 
 101   2.0000      -0.424539       -11.5523 
 102   2.0000      -0.422953       -11.5091 
 103   2.0000      -0.419720       -11.4212 
 104   2.0000      -0.409626       -11.1465 
 105   2.0000      -0.409249       -11.1362 
 106   2.0000      -0.398374       -10.8403 
 107   2.0000      -0.391661       -10.6576 
 108   2.0000      -0.390028       -10.6132 
 109   2.0000      -0.377250       -10.2655 
 110   2.0000      -0.371950       -10.1213 
 111   2.0000      -0.369141       -10.0448 
 112   2.0000      -0.362316        -9.8591 
 113   2.0000      -0.354342        -9.6421 
 114   2.0000      -0.351158        -9.5555 
 115   2.0000      -0.333993        -9.0884 
 116   2.0000      -0.299022        -8.1368 
 117   2.0000      -0.285037        -7.7563 
 118   2.0000      -0.258347        -7.0300 
 119   0.0000       0.030810         0.8384 
 120   0.0000       0.101441         2.7603 
 121   0.0000       0.104195         2.8353 
 122   0.0000       0.132410         3.6030 
 123   0.0000       0.150996         4.1088 
 124   0.0000       0.166163         4.5215 
 125   0.0000       0.172866         4.7039 
 126   0.0000       0.177839         4.8392 
 127   0.0000       0.187590         5.1046 
 128   0.0000       0.193660         5.2698 
 129   0.0000       0.197257         5.3676 
*Only the first 10 virtual orbitals were printed.

                    ********************************
                    * MULLIKEN POPULATION ANALYSIS *
                    ********************************

-----------------------
MULLIKEN ATOMIC CHARGES
-----------------------
   0 C :    0.122210
   1 C :    0.073118
   2 C :   -0.177027
   3 C :   -0.107787
   4 C :   -0.145138
   5 C :   -0.098886
   6 H :    0.076079
   7 H :    0.100017
   8 H :    0.105709
   9 H :    0.094278
  10 N :   -0.495621
  11 C :    0.150537
  12 C :    0.146361
  13 C :   -0.187001
  14 C :   -0.329648
  15 C :   -0.342827
  16 C :   -0.184430
  17 C :   -0.321448
  18 C :   -0.339137
  19 H :    0.097207
  20 H :    0.096703
  21 C :   -0.227025
  22 H :    0.097075
  23 H :    0.134185
  24 H :    0.097230
  25 H :    0.130343
  26 H :    0.100343
  27 H :    0.120494
  28 H :    0.096560
  29 H :    0.095770
  30 H :    0.133173
  31 H :    0.094226
  32 H :    0.093836
  33 H :    0.100115
  34 H :    0.120766
  35 H :    0.121378
  36 H :    0.108311
  37 H :    0.098962
  38 B :    0.059359
  39 H :   -0.104929
  40 C :   -0.353141
  41 H :    0.114920
  42 H :    0.126779
  43 H :    0.132537
  44 C :   -0.343549
  45 H :    0.133996
  46 H :    0.111979
  47 H :    0.132517
  48 C :   -0.352283
  49 H :    0.126640
  50 H :    0.126859
  51 H :    0.117275
  52 C :   -0.351021
  53 H :    0.114477
  54 C :    0.207780
  55 C :    0.219474
  56 O :   -0.492281
  57 O :   -0.505178
  58 B :    0.680444
  59 H :    0.139931
  60 H :    0.127469
  61 H :   -0.106707
  62 C :   -0.222540
  63 N :   -0.371802
  64 C :   -0.089807
  65 C :   -0.102996
  66 C :   -0.187007
  67 C :    0.100257
  68 H :    0.129562
  69 H :    0.175481
  70 H :    0.184195
  71 H :    0.170796
  72 H :    0.141692
  73 H :    0.159812
Sum of atomic charges:   -0.0000000

--------------------------------
MULLIKEN REDUCED ORBITAL CHARGES
--------------------------------
  0 C s       :     3.114218  s :     3.114218
      pz      :     0.844261  p :     2.704978
      px      :     0.927839
      py      :     0.932877
      dz2     :     0.011470  d :     0.058594
      dxz     :     0.009066
      dyz     :     0.017963
      dx2y2   :     0.009112
      dxy     :     0.010982

  1 C s       :     3.217969  s :     3.217969
      pz      :     0.876944  p :     2.676249
      px      :     0.886837
      py      :     0.912469
      dz2     :     0.008001  d :     0.032664
      dxz     :     0.004971
      dyz     :     0.007216
      dx2y2   :     0.006739
      dxy     :     0.005738

  2 C s       :     3.181497  s :     3.181497
      pz      :     0.961143  p :     2.959840
      px      :     1.003969
      py      :     0.994728
      dz2     :     0.008678  d :     0.035691
      dxz     :     0.005391
      dyz     :     0.009625
      dx2y2   :     0.007125
      dxy     :     0.004871

  3 C s       :     3.155055  s :     3.155055
      pz      :     0.983213  p :     2.917344
      px      :     0.993692
      py      :     0.940440
      dz2     :     0.006675  d :     0.035387
      dxz     :     0.004627
      dyz     :     0.009773
      dx2y2   :     0.006623
      dxy     :     0.007690

  4 C s       :     3.163792  s :     3.163792
      pz      :     0.981090  p :     2.946016
      px      :     1.002019
      py      :     0.962907
      dz2     :     0.006754  d :     0.035330
      dxz     :     0.004576
      dyz     :     0.011009
      dx2y2   :     0.006132
      dxy     :     0.006860

  5 C s       :     3.162494  s :     3.162494
      pz      :     0.949800  p :     2.901916
      px      :     0.984556
      py      :     0.967560
      dz2     :     0.008735  d :     0.034475
      dxz     :     0.005449
      dyz     :     0.008459
      dx2y2   :     0.007109
      dxy     :     0.004724

  6 H s       :     0.910828  s :     0.910828
      pz      :     0.002409  p :     0.013093
      px      :     0.002601
      py      :     0.008082

  7 H s       :     0.887772  s :     0.887772
      pz      :     0.006032  p :     0.012211
      px      :     0.003885
      py      :     0.002294

  8 H s       :     0.882021  s :     0.882021
      pz      :     0.004250  p :     0.012270
      px      :     0.003246
      py      :     0.004774

  9 H s       :     0.893141  s :     0.893141
      pz      :     0.002468  p :     0.012581
      px      :     0.002709
      py      :     0.007404

 10 N s       :     3.577368  s :     3.577368
      pz      :     1.157865  p :     3.883500
      px      :     1.101707
      py      :     1.623928
      dz2     :     0.007895  d :     0.034753
      dxz     :     0.010718
      dyz     :     0.004868
      dx2y2   :     0.005140
      dxy     :     0.006132

 11 C s       :     3.149555  s :     3.149555
      pz      :     0.840143  p :     2.637232
      px      :     0.903577
      py      :     0.893511
      dz2     :     0.015737  d :     0.062676
      dxz     :     0.012339
      dyz     :     0.012233
      dx2y2   :     0.013095
      dxy     :     0.009272

 12 C s       :     3.151044  s :     3.151044
      pz      :     0.939725  p :     2.639935
      px      :     0.803581
      py      :     0.896628
      dz2     :     0.011667  d :     0.062660
      dxz     :     0.011578
      dyz     :     0.008083
      dx2y2   :     0.017949
      dxy     :     0.013383

 13 C s       :     3.209604  s :     3.209604
      pz      :     1.034242  p :     2.940235
      px      :     0.957221
      py      :     0.948773
      dz2     :     0.006283  d :     0.037162
      dxz     :     0.009201
      dyz     :     0.005764
      dx2y2   :     0.008728
      dxy     :     0.007186

 14 C s       :     3.237872  s :     3.237872
      pz      :     0.971500  p :     3.061406
      px      :     1.032345
      py      :     1.057561
      dz2     :     0.005859  d :     0.030370
      dxz     :     0.009678
      dyz     :     0.003627
      dx2y2   :     0.007156
      dxy     :     0.004050

 15 C s       :     3.238509  s :     3.238509
      pz      :     1.051064  p :     3.073231
      px      :     0.954326
      py      :     1.067841
      dz2     :     0.006372  d :     0.031087
      dxz     :     0.007998
      dyz     :     0.003648
      dx2y2   :     0.008836
      dxy     :     0.004233

 16 C s       :     3.208873  s :     3.208873
      pz      :     0.975441  p :     2.938411
      px      :     1.015263
      py      :     0.947706
      dz2     :     0.008597  d :     0.037146
      dxz     :     0.006468
      dyz     :     0.007412
      dx2y2   :     0.009344
      dxy     :     0.005326

 17 C s       :     3.232560  s :     3.232560
      pz      :     1.006536  p :     3.058387
      px      :     0.989487
      py      :     1.062364
      dz2     :     0.009114  d :     0.030500
      dxz     :     0.004703
      dyz     :     0.004302
      dx2y2   :     0.009760
      dxy     :     0.002622

 18 C s       :     3.237055  s :     3.237055
      pz      :     0.977563  p :     3.070926
      px      :     1.032837
      py      :     1.060526
      dz2     :     0.008623  d :     0.031156
      dxz     :     0.006005
      dyz     :     0.004591
      dx2y2   :     0.009031
      dxy     :     0.002907

 19 H s       :     0.891404  s :     0.891404
      pz      :     0.005694  p :     0.011389
      px      :     0.003034
      py      :     0.002661

 20 H s       :     0.891855  s :     0.891855
      pz      :     0.005037  p :     0.011442
      px      :     0.003685
      py      :     0.002721

 21 C s       :     3.216507  s :     3.216507
      pz      :     0.987600  p :     2.972426
      px      :     0.958765
      py      :     1.026061
      dz2     :     0.008809  d :     0.038092
      dxz     :     0.010330
      dyz     :     0.003616
      dx2y2   :     0.010775
      dxy     :     0.004563

 22 H s       :     0.890801  s :     0.890801
      pz      :     0.002877  p :     0.012124
      px      :     0.005889
      py      :     0.003359

 23 H s       :     0.854059  s :     0.854059
      pz      :     0.002276  p :     0.011756
      px      :     0.002496
      py      :     0.006984

 24 H s       :     0.891197  s :     0.891197
      pz      :     0.004559  p :     0.011573
      px      :     0.004671
      py      :     0.002343

 25 H s       :     0.857864  s :     0.857864
      pz      :     0.002270  p :     0.011792
      px      :     0.002072
      py      :     0.007450

 26 H s       :     0.888171  s :     0.888171
      pz      :     0.005369  p :     0.011487
      px      :     0.003223
      py      :     0.002895

 27 H s       :     0.867593  s :     0.867593
      pz      :     0.006018  p :     0.011914
      px      :     0.003002
      py      :     0.002893

 28 H s       :     0.892039  s :     0.892039
      pz      :     0.002230  p :     0.011401
      px      :     0.006594
      py      :     0.002577

 29 H s       :     0.892767  s :     0.892767
      pz      :     0.005480  p :     0.011463
      px      :     0.003284
      py      :     0.002700

 30 H s       :     0.855082  s :     0.855082
      pz      :     0.002182  p :     0.011745
      px      :     0.002320
      py      :     0.007243

 31 H s       :     0.893573  s :     0.893573
      pz      :     0.006511  p :     0.012201
      px      :     0.002588
      py      :     0.003102

 32 H s       :     0.894630  s :     0.894630
      pz      :     0.002699  p :     0.011534
      px      :     0.006400
      py      :     0.002435

 33 H s       :     0.888394  s :     0.888394
      pz      :     0.002200  p :     0.011490
      px      :     0.006564
      py      :     0.002726

 34 H s       :     0.867314  s :     0.867314
      pz      :     0.004915  p :     0.011920
      px      :     0.004053
      py      :     0.002951

 35 H s       :     0.866937  s :     0.866937
      pz      :     0.002098  p :     0.011685
      px      :     0.002300
      py      :     0.007287

 36 H s       :     0.880356  s :     0.880356
      pz      :     0.002238  p :     0.011332
      px      :     0.002166
      py      :     0.006928

 37 H s       :     0.889463  s :     0.889463
      pz      :     0.005393  p :     0.011576
      px      :     0.003505
      py      :     0.002678

[...]
freq.     889.35  E(vib)   ...       0.04 
freq.     891.99  E(vib)   ...       0.03 
freq.     903.42  E(vib)   ...       0.03 
freq.     908.01  E(vib)   ...       0.03 
freq.     912.11  E(vib)   ...       0.03 
freq.     931.60  E(vib)   ...       0.03 
freq.     949.14  E(vib)   ...       0.03 
freq.     950.64  E(vib)   ...       0.03 
freq.     952.34  E(vib)   ...       0.03 
freq.     954.84  E(vib)   ...       0.03 
freq.     959.13  E(vib)   ...       0.03 
freq.     960.89  E(vib)   ...       0.03 
freq.     967.87  E(vib)   ...       0.03 
freq.     975.17  E(vib)   ...       0.03 
freq.     985.49  E(vib)   ...       0.02 
freq.     987.14  E(vib)   ...       0.02 
freq.     995.87  E(vib)   ...       0.02 
freq.    1004.29  E(vib)   ...       0.02 
freq.    1019.34  E(vib)   ...       0.02 
freq.    1020.48  E(vib)   ...       0.02 
freq.    1024.11  E(vib)   ...       0.02 
freq.    1024.35  E(vib)   ...       0.02 
freq.    1033.45  E(vib)   ...       0.02 
freq.    1054.44  E(vib)   ...       0.02 
freq.    1063.92  E(vib)   ...       0.02 
freq.    1074.36  E(vib)   ...       0.02 
freq.    1079.07  E(vib)   ...       0.02 
freq.    1087.16  E(vib)   ...       0.02 
freq.    1097.16  E(vib)   ...       0.02 
freq.    1110.12  E(vib)   ...       0.02 
freq.    1114.76  E(vib)   ...       0.01 
freq.    1127.07  E(vib)   ...       0.01 
freq.    1145.30  E(vib)   ...       0.01 
freq.    1162.09  E(vib)   ...       0.01 
freq.    1171.70  E(vib)   ...       0.01 
freq.    1173.69  E(vib)   ...       0.01 
freq.    1184.17  E(vib)   ...       0.01 
freq.    1192.54  E(vib)   ...       0.01 
freq.    1193.49  E(vib)   ...       0.01 
freq.    1207.86  E(vib)   ...       0.01 
freq.    1208.91  E(vib)   ...       0.01 
freq.    1217.79  E(vib)   ...       0.01 
freq.    1231.14  E(vib)   ...       0.01 
freq.    1233.46  E(vib)   ...       0.01 
freq.    1238.40  E(vib)   ...       0.01 
freq.    1241.29  E(vib)   ...       0.01 
freq.    1256.04  E(vib)   ...       0.01 
freq.    1267.67  E(vib)   ...       0.01 
freq.    1275.41  E(vib)   ...       0.01 
freq.    1291.14  E(vib)   ...       0.01 
freq.    1292.45  E(vib)   ...       0.01 
freq.    1294.02  E(vib)   ...       0.01 
freq.    1308.48  E(vib)   ...       0.01 
freq.    1310.21  E(vib)   ...       0.01 
freq.    1317.81  E(vib)   ...       0.01 
freq.    1320.99  E(vib)   ...       0.01 
freq.    1348.96  E(vib)   ...       0.01 
freq.    1361.19  E(vib)   ...       0.01 
freq.    1369.26  E(vib)   ...       0.01 
freq.    1378.06  E(vib)   ...       0.01 
freq.    1393.34  E(vib)   ...       0.00 
freq.    1402.90  E(vib)   ...       0.00 
freq.    1404.65  E(vib)   ...       0.00 
freq.    1410.26  E(vib)   ...       0.00 
freq.    1417.08  E(vib)   ...       0.00 
freq.    1421.66  E(vib)   ...       0.00 
freq.    1423.99  E(vib)   ...       0.00 
freq.    1432.39  E(vib)   ...       0.00 
freq.    1432.71  E(vib)   ...       0.00 
freq.    1436.21  E(vib)   ...       0.00 
freq.    1443.82  E(vib)   ...       0.00 
freq.    1465.02  E(vib)   ...       0.00 
freq.    1485.14  E(vib)   ...       0.00 
freq.    1485.47  E(vib)   ...       0.00 
freq.    1486.62  E(vib)   ...       0.00 
freq.    1492.08  E(vib)   ...       0.00 
freq.    1494.84  E(vib)   ...       0.00 
freq.    1495.30  E(vib)   ...       0.00 
freq.    1497.28  E(vib)   ...       0.00 
freq.    1497.56  E(vib)   ...       0.00 
freq.    1499.84  E(vib)   ...       0.00 
freq.    1500.35  E(vib)   ...       0.00 
freq.    1501.45  E(vib)   ...       0.00 
freq.    1506.90  E(vib)   ...       0.00 
freq.    1509.96  E(vib)   ...       0.00 
freq.    1512.47  E(vib)   ...       0.00 
freq.    1514.38  E(vib)   ...       0.00 
freq.    1516.11  E(vib)   ...       0.00 
freq.    1518.80  E(vib)   ...       0.00 
freq.    1522.81  E(vib)   ...       0.00 
freq.    1524.64  E(vib)   ...       0.00 
freq.    1526.18  E(vib)   ...       0.00 
freq.    1531.30  E(vib)   ...       0.00 
freq.    1537.79  E(vib)   ...       0.00 
freq.    1539.63  E(vib)   ...       0.00 
freq.    1543.83  E(vib)   ...       0.00 
freq.    1547.88  E(vib)   ...       0.00 
freq.    1634.87  E(vib)   ...       0.00 
freq.    1657.45  E(vib)   ...       0.00 
freq.    1686.43  E(vib)   ...       0.00 
freq.    2466.04  E(vib)   ...       0.00 
freq.    2567.81  E(vib)   ...       0.00 
freq.    3050.54  E(vib)   ...       0.00 
freq.    3054.82  E(vib)   ...       0.00 
freq.    3067.65  E(vib)   ...       0.00 
freq.    3071.35  E(vib)   ...       0.00 
freq.    3073.85  E(vib)   ...       0.00 
freq.    3074.34  E(vib)   ...       0.00 
freq.    3077.80  E(vib)   ...       0.00 
freq.    3078.57  E(vib)   ...       0.00 
freq.    3079.12  E(vib)   ...       0.00 
freq.    3082.04  E(vib)   ...       0.00 
freq.    3085.39  E(vib)   ...       0.00 
freq.    3096.01  E(vib)   ...       0.00 
freq.    3101.82  E(vib)   ...       0.00 
freq.    3103.88  E(vib)   ...       0.00 
freq.    3116.46  E(vib)   ...       0.00 
freq.    3155.07  E(vib)   ...       0.00 
freq.    3158.35  E(vib)   ...       0.00 
freq.    3160.62  E(vib)   ...       0.00 
freq.    3161.53  E(vib)   ...       0.00 
freq.    3162.46  E(vib)   ...       0.00 
freq.    3165.89  E(vib)   ...       0.00 
freq.    3167.56  E(vib)   ...       0.00 
freq.    3169.15  E(vib)   ...       0.00 
freq.    3171.39  E(vib)   ...       0.00 
freq.    3183.48  E(vib)   ...       0.00 
freq.    3183.87  E(vib)   ...       0.00 
freq.    3185.55  E(vib)   ...       0.00 
freq.    3187.54  E(vib)   ...       0.00 
freq.    3188.44  E(vib)   ...       0.00 
freq.    3190.73  E(vib)   ...       0.00 
freq.    3192.85  E(vib)   ...       0.00 
freq.    3199.15  E(vib)   ...       0.00 
freq.    3204.29  E(vib)   ...       0.00 
freq.    3213.99  E(vib)   ...       0.00 
freq.    3214.30  E(vib)   ...       0.00 
freq.    3228.57  E(vib)   ...       0.00 
freq.    3239.95  E(vib)   ...       0.00 
freq.    3270.59  E(vib)   ...       0.00 
freq.    3286.24  E(vib)   ...       0.00 
freq.    3307.77  E(vib)   ...       0.00 

------------
INNER ENERGY
------------

The inner energy is: U= E(el) + E(ZPE) + E(vib) + E(rot) + E(trans)
    E(el)   - is the total energy from the electronic structure calculation
              = E(kin-el) + E(nuc-el) + E(el-el) + E(nuc-nuc)
    E(ZPE)  - the the zero temperature vibrational energy from the frequency calculation
    E(vib)  - the the finite temperature correction to E(ZPE) due to population
              of excited vibrational states
    E(rot)  - is the rotational thermal energy
    E(trans)- is the translational thermal energy

Summary of contributions to the inner energy U:
Electronic energy                ...  -1325.53104052 Eh
Zero point energy                ...      0.65569675 Eh     411.46 kcal/mol
Thermal vibrational correction   ...      0.02815172 Eh      17.67 kcal/mol
Thermal rotational correction    ...      0.00141627 Eh       0.89 kcal/mol
Thermal translational correction ...      0.00141627 Eh       0.89 kcal/mol
-----------------------------------------------------------------------
Total thermal energy                  -1324.84435951 Eh


Summary of corrections to the electronic energy:
(perhaps to be used in another calculation)
Total thermal correction                  0.03098427 Eh      19.44 kcal/mol
Non-thermal (ZPE) correction              0.65569675 Eh     411.46 kcal/mol
-----------------------------------------------------------------------
Total correction                          0.68668101 Eh     430.90 kcal/mol


--------
ENTHALPY
--------

The enthalpy is H = U + kB*T
                kB is Boltzmann's constant
Total thermal energy              ...  -1324.84435951 Eh 
Thermal Enthalpy correction       ...      0.00094421 Eh       0.59 kcal/mol
-----------------------------------------------------------------------
Total Enthalpy                    ...  -1324.84341530 Eh


Note: Only C1 symmetry has been detected, increase convergence thresholds 
      if your molecule has a higher symmetry. Symmetry factor of 1.0 is   
      used for the rotational entropy correction. 
 

Note: Rotational entropy computed according to Herzberg 
Infrared and Raman Spectra, Chapter V,1, Van Nostrand Reinhold, 1945 
Point Group:  C1, Symmetry Number:   1  
Rotational constants in cm-1:     0.006435     0.003729     0.003030 

Vibrational entropy computed according to the QRRHO of S. Grimme
Chem.Eur.J. 2012 18 9955 using a reference frequency of 100.0 cm-1


-------
ENTROPY
-------

The entropy contributions are T*S = T*(S(el)+S(vib)+S(rot)+S(trans))
     S(el)   - electronic entropy
     S(vib)  - vibrational entropy
     S(rot)  - rotational entropy
     S(trans)- translational entropy
The entropies will be listed as multiplied by the temperature to get
units of energy

Electronic entropy                ...      0.00000000 Eh      0.00 kcal/mol
Vibrational entropy               ...      0.04803008 Eh     30.14 kcal/mol
Rotational entropy                ...      0.01727040 Eh     10.84 kcal/mol
Translational entropy             ...      0.02095749 Eh     13.15 kcal/mol
-----------------------------------------------------------------------
Final entropy term                ...      0.08625797 Eh     54.13 kcal/mol

In case the symmetry of your molecule has not been determined correctly
or in case you have a reason to use a different symmetry number we print 
out the resulting rotational entropy values for sn=1,12:

 non-linear molecules -----------------------------------
|  sn= 1 | S(rot)=       0.01727040 Eh     10.84 kcal/mol|
|  sn= 2 | S(rot)=       0.01661595 Eh     10.43 kcal/mol|
|  sn= 3 | S(rot)=       0.01623311 Eh     10.19 kcal/mol|
|  sn= 4 | S(rot)=       0.01596149 Eh     10.02 kcal/mol|
|  sn= 5 | S(rot)=       0.01575080 Eh      9.88 kcal/mol|
|  sn= 6 | S(rot)=       0.01557866 Eh      9.78 kcal/mol|
|  sn= 7 | S(rot)=       0.01543311 Eh      9.68 kcal/mol|
|  sn= 8 | S(rot)=       0.01530703 Eh      9.61 kcal/mol|
|  sn= 9 | S(rot)=       0.01519582 Eh      9.54 kcal/mol|
|  sn=10 | S(rot)=       0.01509634 Eh      9.47 kcal/mol|
|  sn=11 | S(rot)=       0.01500635 Eh      9.42 kcal/mol|
|  sn=12 | S(rot)=       0.01492420 Eh      9.37 kcal/mol|
 linear molecules ---------------------------------------
|  Dinfh | S(rot)=       0.01080119 Eh      6.78 kcal/mol|
|  Cinfv | S(rot)=       0.01145564 Eh      7.19 kcal/mol|
 --------------------------------------------------------


-------------------
GIBBS FREE ENERGY
-------------------

The Gibbs free energy is G = H - T*S

Total enthalpy                    ...  -1324.84341530 Eh 
Total entropy correction          ...     -0.08625797 Eh    -54.13 kcal/mol
-----------------------------------------------------------------------
Final Gibbs free energy         ...  -1324.92967327 Eh

For completeness - the Gibbs free energy minus the electronic energy
G-E(el)                           ...      0.60136725 Eh    377.36 kcal/mol


Reading the hessian file           ...... done
Determining length of initial displacement:
  Requested energy change (quadratic behavior): 2.000 mEh
  Resulting scaling factor for initial displacement along normalized TS mode: 3.7557

         *************************************************************
         *                          FORWARD IRC                      *
         *************************************************************

Iteration    E(Eh)      dE(kcal/mol)  max(|G|)   RMS(G) 
Convergence thresholds                0.002000  0.000500            
    0     -1325.522351    5.452874    0.021510  0.004220
    1     -1325.527406    2.280889    0.012110  0.001890
    2     -1325.529358    1.055495    0.003871  0.000682
    3     -1325.529672    0.859041    0.005618  0.000798
    4     -1325.529753    0.807751    0.002888  0.000493
    5     -1325.529838    0.754786    0.002669  0.000382
    6     -1325.529927    0.698461    0.002385  0.000327
    7     -1325.530008    0.648177    0.002101  0.000285
    8     -1325.530080    0.602762    0.001820  0.000260

                      ***********************HURRAY********************
                      ***            THE IRC HAS CONVERGED          ***
                      *************************************************


         *************************************************************
         *                          BACKWARD IRC                     *
         *************************************************************

Iteration    E(Eh)      dE(kcal/mol)  max(|G|)   RMS(G) 
Convergence thresholds                0.002000  0.000500            
    0     -1325.526615    2.777129    0.024852  0.004182
    1     -1325.531253   -0.133541    0.010106  0.001668
    2     -1325.532981   -1.217696    0.003815  0.000851
    3     -1325.533277   -1.403396    0.003239  0.000767
    4     -1325.533401   -1.480997    0.003103  0.000554
    5     -1325.533632   -1.626427    0.002724  0.000413
    6     -1325.533827   -1.748234    0.002248  0.000322
    7     -1325.533981   -1.845264    0.001743  0.000264

                      ***********************HURRAY********************
                      ***            THE IRC HAS CONVERGED          ***
                      *************************************************


---------------------------------------------------------------
                       IRC PATH SUMMARY              
---------------------------------------------------------------
All gradients are in Eh/Bohr.

Step        E(Eh)      dE(kcal/mol)  max(|G|)   RMS(G) 
   1     -1325.533981   -1.845264    0.001743  0.000264
   2     -1325.533827   -1.748234    0.002248  0.000322
   3     -1325.533632   -1.626427    0.002724  0.000413
   4     -1325.533401   -1.480997    0.003103  0.000554
   5     -1325.533277   -1.403396    0.003239  0.000767
   6     -1325.532981   -1.217696    0.003815  0.000851
   7     -1325.531253   -0.133541    0.010106  0.001668
   8     -1325.526615    2.777129    0.024852  0.004182
   9     -1325.531041    0.000000    0.000133  0.000012 <= TS
  10     -1325.522351    5.452874    0.021510  0.004220
  11     -1325.527406    2.280889    0.012110  0.001890
  12     -1325.529358    1.055495    0.003871  0.000682
  13     -1325.529672    0.859041    0.005618  0.000798
  14     -1325.529753    0.807751    0.002888  0.000493
  15     -1325.529838    0.754786    0.002669  0.000382
  16     -1325.529927    0.698461    0.002385  0.000327
  17     -1325.530008    0.648177    0.002101  0.000285
  18     -1325.530080    0.602762    0.001820  0.000260

--------------------------------
SUGGESTED CITATIONS FOR THIS RUN
--------------------------------

Below you find a list of papers that are relevant to this ORCA run
We neither can nor want to force you to cite these papers, but we appreciate if you do
You receive ORCA, which is the product of decades of hard work by many enthusiastic individuals, for free
The only thing we kindly ask in return is that you cite our papers,
We deeply appreciate it, if you show your appreciation for ORCA by not just citing the generic ORCA reference.

Please note that relegating all ORCA citations to the supporting information does *not* help us.
SI sections are not indexed - citations you put there will not count into any citation statistics
But we need these citations in order to attract the funding resources that allow us to do what we are doing

Therefore, if you are a happy ORCA user, please consider citing a few of the papers listed below in the main body of your paper

In addition to the list printed below, the program has created the file input.bibtex that contains the list in bibtex format
You can import this file easily into all common literature databanks and citation aid programs


List of essential papers. We consider these as the minimum necessary citations

  1. Neese,F.
     Software update: the ORCA program system, version 5.0
     WIRES Comput. Molec. Sci., 2022 12(1)e1606
     doi.org/10.1002/wcms.1606

List of papers to cite with high priority. The work reported in these papers was absolutely
necessary for this run to complete.
Our perspective: the developers of density functionals and basis sets usually get cited in chemistry papers
Good! But without the algorithms to do something with them, the functionals or basis sets would not do anything.
Hence, in our opinion, the algorithm design and method developments papers are equally worthy of getting cited

  1. Neese,F.
     An improvement of the resolution of the identity approximation for the formation of the Coulomb matrix
     J. Comp. Chem., 2003 24(14)1740-1747
     doi.org/10.1002/jcc.10318
  2. Neese,F.; Wennmohs,F.; Hansen,A.; Becker,U.
     Efficient, approximate and parallel Hartree-Fock and hybrid DFT calculations. A 'chain-of-spheres' algorithm for the Hartree-Fock exchange
     Chem. Phys., 2009 356(1-3)98-109
     doi.org/10.1016/j.chemphys.2008.10.036
  3. Bykov,D.; Petrenko,T.; Izsak,R.; Kossmann,S.; Becker,U.; Valeev,E.; Neese,F.
     Efficient implementation of the analytic second derivatives of Hartree-Fock and hybrid DFT energies: a detailed analysis of different approximations
     Molec. Phys., 2015 113 1961-1977
     doi.org/10.1080/00268976.2015.1025114
  4. Helmich-Paris,B.; de Souza,B.; Neese,F.; Izsák,R.
     An improved chain of spheres for exchange algorithm
     J. Chem. Phys., 2021 155 104109
     doi.org/doi: 10.1063/5.0058766.
  5. Neese,F.
     The SHARK Integral Generation and Digestion System
     J. Comp. Chem., 2022  1-16
     doi.org/10.1002/jcc.26942
  6. Grimme,S.; Antony,J.; Ehrlich,S.; Krieg,H.
     A consistent and accurate ab initio parametrization of density functional dispersion correction (DFT-D) for the 94 elements H-Pu
     J. Chem. Phys., 2010 132 154104
     doi.org/10.1063/1.3382344

List of suggested additional citations. These are papers that are important in the 'surrounding' of 
of this run, or papers that preceded the highly important papers. If you like your results we are grateful for a citation.

  1. Izsak,R.; Neese,F.
     An overlap fitted chain of spheres exchange method
     J. Chem. Phys., 2011 135 144105
     doi.org/10.1063/1.3646921
  2. Izsak,R.; Hansen,A.; Neese,F.
     The resolution of identity and chain of spheres approximations for the LPNO-CCSD singles Fock term
     Molec. Phys., 2012 110 2413-2417
     doi.org/10.1080/00268976.2012.687466
  3. Neese,F.
     The ORCA program system
     WIRES Comput. Molec. Sci., 2012 2(1)73-78
     doi.org/10.1002/wcms.81
  4. Izsak,R.; Neese,F.; Klopper,W.
     Robust fitting techniques in the chain of spheres approximation to the Fock exchange: The role of the complementary space
     J. Chem. Phys., 2013 139 
     doi.org/10.1063/1.4819264
  5. Neese,F.
     Software update: the ORCA program system, version 4.0
     WIRES Comput. Molec. Sci., 2018 8(1)1-6
     doi.org/10.1002/wcms.1327
  6. Neese,F.; Wennmohs,F.; Becker,U.; Riplinger,C.
     The ORCA quantum chemistry program package
     J. Chem. Phys., 2020 152 Art. No. L224108
     doi.org/10.1063/5.0004608

List of optional additional citations

  1. Neese,F.
     Approximate second-order SCF convergence for spin unrestricted wavefunctions
     Chem. Phys. Lett., 2000 325(1-3)93-98
     doi.org/10.1016/s0009-2614(00)00662-x

Timings for individual modules:

Sum of individual times          ...    20795.267 sec (= 346.588 min)
Startup calculation              ...      448.049 sec (=   7.467 min)   2.2 %
SCF iterations                   ...     4818.632 sec (=  80.311 min)  23.2 %
Property calculations            ...        0.553 sec (=   0.009 min)   0.0 %
SCF Gradient evaluation          ...      835.932 sec (=  13.932 min)   4.0 %
Numerical frequency calculation  ...    14692.100 sec (= 244.868 min)  70.7 %
                             ****ORCA TERMINATED NORMALLY****
TOTAL RUN TIME: 0 days 5 hours 44 minutes 48 seconds 356 msec
