
                                 *****************
                                 * O   R   C   A *
                                 *****************

                                            #,                                       
                                            ###                                      
                                            ####                                     
                                            #####                                    
                                            ######                                   
                                           ########,                                 
                                     ,,################,,,,,                         
                               ,,#################################,,                 
                          ,,##########################################,,             
                       ,#########################################, ''#####,          
                    ,#############################################,,   '####,        
                  ,##################################################,,,,####,       
                ,###########''''           ''''###############################       
              ,#####''   ,,,,##########,,,,          '''####'''          '####       
            ,##' ,,,,###########################,,,                        '##       
           ' ,,###''''                  '''############,,,                           
         ,,##''                                '''############,,,,        ,,,,,,###''
      ,#''                                            '''#######################'''  
     '                                                          ''''####''''         
             ,#######,   #######,   ,#######,      ##                                
            ,#'     '#,  ##    ##  ,#'     '#,    #''#        ,####,    ,#,          
            ##       ##  ##   ,#'  ##            #'  '#       #'       ,# #          
            ##       ##  #######   ##           ,######,      #####,      #          
            '#,     ,#'  ##    ##  '#,     ,#' ,#      #,     #,   #      #          
             '#######'   ##     ##  '#######'  #'      '#     '####' #    #          



                #########################################################
                #                        -***-                          #
                #          Department of theory and spectroscopy        #
                #                                                       #
                #                      Frank Neese                      #
                #                                                       #
                #     Directorship, Architecture, Infrastructure        #
                #                    SHARK, DRIVERS                     #
                #        Core code/Algorithms in most modules           #
                #                                                       #
                #        Max Planck Institute fuer Kohlenforschung      #
                #                Kaiser Wilhelm Platz 1                 #
                #                 D-45470 Muelheim/Ruhr                 #
                #                      Germany                          #
                #                                                       #
                #                  All rights reserved                  #
                #                        -***-                          #
                #########################################################


                         Program Version 6.1.0  -  RELEASE   -
                                (GIT: $679e74b$)
                          ($2025-06-10 18:02:51 +0200$)


 With contributions from (in alphabetic order):
[Max-Planck-Institut fuer Kohlenforschung]                               
  Daniel Aravena         : Magnetic Suceptibility                        
  Michael Atanasov       : Ab Initio Ligand Field Theory (pilot matlab implementation)
  Alexander A. Auer      : GIAO ZORA, VPT2 properties, NMR spectrum      
  Ute Becker             : All parallelization in ORCA, NUMFREQ, NUMCALC 
  Giovanni Bistoni       : ED, misc. LED, open-shell LED, HFLD           
  Dmytro Bykov           : pre 5.0 version of the SCF Hessian            
  Marcos Casanova-Páez   : Triplet and SCS-CIS(D). UHF-(DLPNO)-IP/EA/STEOM-CCSD. UHF-CVS-IP/STEOM-CCSD   
  Vijay G. Chilkuri      : MRCI spin determinant printing, contributions to CSF-ICE 
  Pauline Colinet        : FMM embedding                                 
  Dipayan Datta          : RHF DLPNO-CCSD density                        
  Achintya Kumar Dutta   : EOM-CC, STEOM-CC                              
  Nicolas Foglia         : Exact transition moments, OPA infrastructure, MCD improvements    
  Dmitry Ganyushin       : Spin-Orbit,Spin-Spin,Magnetic field MRCI      
  Miquel Garcia-Rates    : C-PCM and meta-GGA Hessian, CCSD/C-PCM, Gaussian charge scheme 
  Tiago L. C. Gouveia    : GS-ROHF, GS-ROCIS                             
  Yang Guo               : DLPNO-NEVPT2, F12-NEVPT2, CIM, IAO-localization        
  Andreas Hansen         : Spin unrestricted coupled pair/coupled cluster methods 
  Ingolf Harden          : AUTO-CI MPn and infrastructure                
  Benjamin Helmich-Paris : MC-RPA, TRAH-(SCF,CASSCF), AVAS, COSX integrals, SCF dyn. polar., MC-PDFT, srDFT 
  Lee Huntington         : MR-EOM, pCC                                   
  Robert Izsak           : Overlap fitted RIJCOSX, COSX-SCS-MP3, EOM     
  Riya Kayal             : Wick's Theorem for AUTO-CI, AUTO-CI UHF-CCSDT 
  Emily Kempfer          : AUTO-CI RHF CISDT and CCSDT, approximate NEVPT4
  Christian Kollmar      : KDIIS, OOCD, Brueckner-CCSD(T), CCSD density, CASPT2, CASPT2-K, improved NEVPT2 
  Axel Koslowski         : Symmetry handling                             
  Simone Kossmann        : meta-GGA functionals, TD-DFT gradient, OOMP2, (MP2 Hessian; deprecated post 5.0) 
  Lucas Lang             : DCDCAS, Hyperfine gauge corrections, ICE-SOC+SSC
  Marvin Lechner         : AUTO-CI (C++ implementation), FIC-MRCC        
  Spencer Leger          : CASSCF response                               
  Dagmar Lenk            : GEPOL surface, SMD, ORCA-2-JSON               
  Dimitrios Liakos       : Extrapolation schemes; Compound Job, Property file
  Dimitrios Manganas     : Further ROCIS development; embedding schemes. LFT, Crystal Embedding 
  Dimitrios Pantazis     : SARC Basis sets                               
  Anastasios Papadopoulos: AUTO-CI, single reference methods and gradients 
  Taras Petrenko         : pre 6.0 DFT Hessian and TD-DFT gradient,  ECA, NRVS 
  Petra Pikulova         : Analytic Raman intensities                    
  Peter Pinski           : DLPNO-MP2, DLPNO-MP2 Gradient                 
  Shashank Vittal Rao    : ES-AILFT, MagRelax                            
  Christoph Reimann      : Effective Core Potentials                     
  Marius Retegan         : Local ZFS, SOC                                
  Christoph Riplinger    : Optimizer, TS searches, QM/MM, DLPNO-CCSD(T), (RO)-DLPNO pert. Triples 
  Michael Roemelt        : Original ROCIS implementation, recursive CI coupling coefficients
  Masaaki Saitow         : Open-shell DLPNO-CCSD energy and density      
  Barbara Sandhoefer     : DKH picture change effects                    
  Yorick L. A. Schmerwitz: GMF and freeze-and-release deltaSCF, NEB S-IDPP initial path                    
  Kantharuban Sivalingam : CASSCF convergence/infrastructure, NEVPT2, NEVPT3, NEVPT4(SD), FIC-MRCI and CEPA variants
  Bernardo de Souza      : ESD, SOC TD-DFT                               
  Georgi L. Stoychev     : AutoAux, RI-MP2 NMR, DLPNO-MP2 response, X2C  
  Van Anh Tran           : RI-MP2 g-tensors                              
  Willem Van den Heuvel  : Paramagnetic NMR                              
  Zikuan Wang            : NOTCH, Electric field optimization            
  Frank Wennmohs         : Technical directorship and infrastructure     
  Hang Xu                : AUTO-CI-Response properties                   
                                                                         
[FACCTs GmbH]                                                            
  Markus Bursch, Nicolas Foglia, Miquel Garcia-Rates, Ingolf Harden, Hagen Neugebauer, Anastasios Papadopoulos, 
  Christoph Riplinger, Bernardo de Souza, Georgi L. Stoychev                                                    
                                                                 
  APM, various basis sets, CI-OPT, improved COSX, DLPNO-Multilevel,           
  DOCKER, DRACO, updates on ESD, Fragmentator, GOAT, IRC, LR-CPCM, L-BFGS, MBIS, meta-GGA TD-DFT gradient, ML-optimized integration grids, 
  MM, NACMEs, nearIR, NEB, NEB-TS, NL-DFT gradient (VV10), 2- and 3-layer-ONIOM, interface openCOSMO-RS, QMMM,   
  Crystal-QMMM, RESP, rigid body optimization, SF, symmetry and pop. for TD-DFT, various functionals, SOLVATOR                                   
                                                                         
[Other institutions]                                                     
  V. Asgeirsson          : NEB                                           
  Christoph Bannwarth    : sTDA-DFT, sTD-DFT, PBEh-3c, B97-3c, D3        
  Giovanni Bistoni       : ETS/NOCV, ADLD/ADEX, COVALED                  
  Martin Brehm           : Molecular dynamics                            
  Ronald Cardenas        : ETS/NOCV                                      
  Martina Colucci        : COVALED                                       
  Sebastian Ehlert       : rSCAN, r2SCAN, r2SCAN-3c, D4, dhf basis sets  
  Marvin Friede          : D4 for Fr, Ra, Ac-Lr                          
  Lars Goerigk           : TD-DFT with DH, B97 family of functionals     
  Stefan Grimme          : VdW corrections, initial TS optimization, DFT functionals, gCP, sTDA/sTD-DF 
  Waldemar Hujo          : DFT-NL                                        
  H. Jonsson             : NEB                                           
  Holger Kruse           : gCP                                           
  Marcel Mueller         : wB97X-3c, vDZP basis set                      
  Hagen Neugebauer       : wr2SCAN, Native XTB                           
  Gianluca Regni         : ADLD/ADEX                                     
  Tobias Risthaus        : pre 6.0 range-separated hybrid DFT and stability analysis
  Lukas Wittmann         : regularized MP2, r2SCAN double-hybrids, wr2SCAN        
                                                                         
We gratefully acknowledge several colleagues who have allowed us to      
interface, adapt or use parts of their codes:                            
  Ed Valeev, F. Pavosevic, A. Kumar             : LibInt (2-el integral package), F12 methods 
  Garnet Chan, S. Sharma, J. Yang, R. Olivares  : DMRG                   
  Ulf Ekstrom                                   : XCFun DFT Library      
  Mihaly Kallay                                 : mrcc  (arbitrary order and MRCC methods)
  Frank Weinhold                                : gennbo (NPA and NBO analysis)           
  Simon Mueller                                 : openCOSMO-RS                            
  Christopher J. Cramer and Donald G. Truhlar   : smd solvation model                     
  S Lehtola, MJT Oliveira, MAL Marques          : LibXC Library                           
  Liviu Ungur et al                             : ANISO software                          


 Your calculation uses the libint2 library for the computation of 2-el integrals
 For citations please refer to: http://libint.valeyev.net

 Your ORCA version has been built with support for libXC version: 7.0.0
 For citations please refer to: https://libxc.gitlab.io

 This ORCA versions uses:
   CBLAS   interface :  Fast vector & matrix operations
   LAPACKE interface :  Fast linear algebra routines
   SCALAPACK package :  Parallel linear algebra routines
   Shared memory     :  Shared parallel matrices
   BLAS/LAPACK       :  OpenBLAS 0.3.29  USE64BITINT DYNAMIC_ARCH NO_AFFINITY Zen SINGLE_THREADED
        Core in use  :  Zen
   Copyright (c) 2011-2014, The OpenBLAS Project


  ***********************************
  * Starting time: Tue Jul 29 10:23:41 2025
  * Host name:     node066.cluster
  * Process ID:    1294866
  * Working dir.:  /scratch/53217178/_e0ifd0
  ***********************************

NOTE: MaxCore=4129 MB was set to SCF,MP2,MDCI,CIPSI,MRCI,RASCI and CIS
      => If you want to overwrite this, your respective input block should be placed after the MaxCore statement
Your calculation utilizes the atom-pairwise dispersion correction
with the zero-damping scheme (D30)


XCFun DFT library Copyright 2009-2010 Ulf Ekstrom and contributors.
See http://admol.org/xcfun for more information.
This is free software; see the source code for copying conditions.
There is ABSOLUTELY NO WARRANTY; not even for MERCHANTABILITY or FITNESS FOR A PARTICULAR PURPOSE.
For details see the documentation.
Scientific users of this library should cite U. Ekstrom, L. Visscher, R. Bast, A. J. Thorvaldsen and K. Ruud;
J.Chem.Theor.Comp. 2010, DOI: 10.1021/ct100117s
XCFun Version 0.99 

Warning: RI is on but no J-basis has been assigned. Assigning Def2/J (nothing to worry about!)
================================================================================

----- Orbital basis set information -----
Your calculation utilizes the basis: 6-31G**
   H-He, Li-Ne : W. J. Hehre, R. Ditchfield and J.A. Pople, J. Chem. Phys. 56, 2257 (1972).
                 Note: He and Ne are unpublished basis sets taken from the Gaussian program.
                 Note: Li and B from J. D. Dill and J. A. Pople, J. Chem. Phys. 62, 2921 (1975).
   Na - Ar     : M. M. Francl, W. J. Pietro, W. J. Hehre, J. S. Binkley, M. S. Gordon, 
                 D. J. DeFrees and J. A. Pople, J. Chem. Phys. 77, 3654 (1982).
   K - Zn      : V. A. Rassolov, J. A. Pople, M. A. Ratner, and T. L. Windus, J. Chem. Phys. 109, 1223 (1998).

----- AuxJ basis set information -----
Your calculation utilizes the auxiliary basis: def2/J
   H-Rn: F. Weigend, Phys. Chem. Chem. Phys. 8, 1057 (2006).
   Fr-Lr: K. Eichkorn, F. Weigend, O. Treutler, R. Ahlrichs; Theor. Chem. Acc. 97, 119 (1997).

================================================================================
                                        WARNINGS
                       Please study these warnings very carefully!
================================================================================


WARNING: Geometry Optimization
  ===> : Switching off AutoStart
         For restart on a previous wavefunction, please use MOREAD

================================================================================
                                       INPUT FILE
================================================================================
NAME = input.inp
|  1> # Automatically generated ORCA input
|  2> 
|  3> # Number of cores
|  4> %pal nprocs 62 end
|  5> # RAM per core
|  6> %maxcore 4129
|  7> 
|  8> ! wB97X-D3 
|  9> ! 6-31G** 
| 10> ! Opt 
| 11> ! NoSym 
| 12> 
| 13> %geom
| 14>     Constraints
| 15>         {B 11 27 C}
| 16>         {B 27 32 C}
| 17>         {B 23 11 C}
| 18>         {B 23 32 C}
| 19>         {B 11 32 C}
| 20>         {B 23 27 C}
| 21>         {A 11 27 32 C}
| 22>         {A 11 23 32 C}
| 23>     end
| 24> end
| 25> %Output
| 26>   JSONPropFile True
| 27> End
| 28> 
| 29> 
| 30> *xyz 0 1 
| 31> C        -2.23495000     -1.44824000      0.97690000
| 32> C        -1.07095000     -0.72541000      0.63015000
| 33> C        -0.02669000     -1.43321000      0.02758000
| 34> C        -0.09927000     -2.80246000     -0.22444000
| 35> C        -1.24558000     -3.49625000      0.13450000
| 36> C        -2.30963000     -2.82007000      0.72893000
| 37> H         0.88674000     -0.89680000     -0.21551000
| 38> H         0.73793000     -3.32013000     -0.68246000
| 39> H        -1.32366000     -4.56413000     -0.04788000
| 40> H        -3.20488000     -3.37229000      0.99636000
| 41> N        -3.30029000     -0.75641000      1.62935000
| 42> B        -0.87051000      0.81403000      0.96092000
| 43> H         1.94202000      3.87821000     -0.00485000
| 44> H         3.52012000      3.08685000     -0.18651000
| 45> H         2.02499000      2.13347000     -0.27389000
| 46> C         4.10277000      0.76092000      1.23660000
| 47> H         4.99242000      1.39511000      1.16825000
| 48> H         4.40963000     -0.21763000      1.61473000
| 49> H         3.69004000      0.62349000      0.23607000
| 50> C         3.60051000      1.35136000      3.61735000
| 51> H         3.75987000      0.31197000      3.91459000
| 52> H         4.54848000      1.88825000      3.71206000
| 53> H         2.87552000      1.79431000      4.30580000
| 54> C        -0.56853000      0.98464000      2.87602000
| 55> C        -0.69782000     -0.22387000      3.56454000
| 56> C        -1.63249000     -0.20704000      4.60713000
| 57> H        -1.74807000      1.61282000      0.80888000
| 58> H         0.17621000      1.24352000      0.51534000
| 59> C         2.54872000      2.78837000      1.74158000
| 60> C         3.07798000      1.37488000      2.17971000
| 61> O         1.18545000      2.76272000      2.21329000
| 62> O         1.88496000      0.56714000      2.15676000
| 63> B         0.81869000      1.43772000      2.25811000
| 64> C         3.26051000      3.96439000      2.39505000
| 65> H         2.83280000      4.90101000      2.02862000
| 66> H         3.15086000      3.94277000      3.48030000
| 67> H         4.32666000      3.95511000      2.14702000
| 68> C         2.51264000      2.97498000      0.22399000
| 69> H        -0.11681000     -1.09227000      3.27755000
| 70> C        -2.22153000      1.03211000      4.73611000
| 71> H        -1.87656000     -1.05678000      5.23114000
| 72> H        -2.98493000      1.31622000      5.44874000
| 73> S        -1.64065000      2.15774000      3.60861000
| 74> C        -3.92093000      0.42289000      0.99687000
| 75> C        -4.09726000     -1.46979000      2.64890000
| 76> C        -5.17596000     -0.55901000      3.23837000
| 77> C        -3.43454000     -1.81290000      3.46761000
| 78> C        -4.60974000     -2.35308000      2.21816000
| 79> C        -6.13019000     -0.04670000      2.14590000
| 80> H        -4.63846000      0.31132000      3.66999000
| 81> H        -5.74911000     -1.03428000      4.06269000
| 82> C        -5.41487000      0.15821000      0.79683000
| 83> H        -6.55951000      0.90629000      2.52496000
| 84> H        -6.97196000     -0.75032000      1.96672000
| 85> C        -3.49410000      0.59933000     -0.01446000
| 86> C        -3.80102000      1.32555000      1.63327000
| 87> H        -5.93134000      0.94614000      0.20799000
| 88> H        -5.47111000     -0.78772000      0.21188000
| 89> H        -3.61848000     -0.27929000     -0.61234000
| 90> H        -2.45221000      0.82678000      0.07285000
| 91> H        -4.00083000      1.42030000     -0.47720000
| 92> H        -4.25902000      2.16446000      1.15227000
| 93> H        -2.75963000      1.52305000      1.77955000
| 94> H        -4.26892000      1.15854000      2.58094000
| 95> H        -5.25507000     -2.03916000      1.42449000
| 96> H        -5.18790000     -2.83580000      2.97817000
| 97> H        -3.88102000     -3.03704000      1.83597000
| 98> H        -2.67488000     -2.45153000      3.06765000
| 99> H        -4.01034000     -2.35271000      4.19008000
|100> H        -2.97829000     -0.96587000      3.93588000
|101> *
|102> 
|103> 
|104>                          ****END OF INPUT****
================================================================================

                       *****************************
                       * Geometry Optimization Run *
                       *****************************

Geometry optimization settings:
Update method            Update   .... BFGS
Choice of coordinates    CoordSys .... (2022) Redundant Internals
Initial Hessian          InHess   .... Almloef's Model
Max. no of cycles        MaxIter  .... 210

Convergence Tolerances:
Energy Change            TolE     ....  5.0000e-06 Eh
Max. Gradient            TolMAXG  ....  3.0000e-04 Eh/bohr
RMS Gradient             TolRMSG  ....  1.0000e-04 Eh/bohr
Max. Displacement        TolMAXD  ....  4.0000e-03 bohr
RMS Displacement         TolRMSD  ....  2.0000e-03 bohr
Strict Convergence                .... False

------------------------------------------------------------------------------
                        ORCA OPTIMIZATION COORDINATE SETUP
------------------------------------------------------------------------------

The optimization will be done in redundant internal coordinates (2022)
Making redundant internal coordinates   ...  (2022 redundants) done
Evaluating the initial hessian          ...  (Almloef) done
Evaluating the coordinates              ...  done
Calculating the B-matrix                .... done
Calculating the G-matrix                .... done
The number of degrees of freedom        ....  415
Storing new coordinates                 .... done

    -----------------------------------------------------------------
                    Redundant Internal Coordinates


    -----------------------------------------------------------------
         Definition                    Initial Value    Approx d2E/dq
    -----------------------------------------------------------------
      1. B(C   1,C   0)                  1.4134         0.573394   
      2. B(C   2,C   1)                  1.3981         0.606585   
      3. B(C   3,C   2)                  1.3941         0.615365   
      4. B(C   4,C   3)                  1.3872         0.631352   
      5. B(C   5,C   4)                  1.3938         0.616062   
      6. B(C   5,C   0)                  1.3961         0.611041   
      7. B(H   6,C   2)                  1.0868         0.364328   
      8. B(H   7,C   3)                  1.0857         0.365881   
      9. B(H   8,C   4)                  1.0862         0.365226   
     10. B(H   9,C   5)                  1.0853         0.366333   
     11. B(N  10,C   0)                  1.4280         0.486633   
     12. B(B  11,C   1)                  1.5873         0.350596   
     13. B(H  16,C  15)                  1.0947         0.353949   
     14. B(H  17,C  15)                  1.0930         0.356119   
     15. B(H  18,C  15)                  1.0910         0.358772   
     16. B(H  20,C  19)                  1.0927         0.356495   
     17. B(H  21,C  19)                  1.0936         0.355425   
     18. B(H  22,C  19)                  1.0935         0.355478   
     19. B(C  23,B  11)                  1.9463         0.093775 C 
     20. B(C  24,C  23)                  1.3969         0.609204   
     21. B(C  25,C  24)                  1.4003         0.601561   
     22. B(H  26,B  11)                  1.1964         0.282189   
     23. B(H  27,C  23)                  2.4889         0.010000 C 
     24. B(H  27,B  11)                  1.2160         0.262564 C 
     25. B(C  29,C  15)                  1.5220         0.384664   
     26. B(C  29,C  19)                  1.5298         0.373799   
     27. B(C  29,C  28)                  1.5716         0.320594   
     28. B(O  30,C  28)                  1.4428         0.460931   
     29. B(O  31,C  29)                  1.4409         0.464116   
     30. B(B  32,C  23)                  1.5848         0.353854 C 
     31. B(B  32,O  30)                  1.3756         0.683505   
     32. B(B  32,O  31)                  1.3803         0.671792   
     33. B(B  32,H  27)                  1.8675         0.023972 C 
     34. B(B  32,B  11)                  2.2193         0.039843 C 
     35. B(C  33,C  28)                  1.5221         0.384621   
     36. B(H  34,C  33)                  1.0929         0.356264   
     37. B(H  35,C  33)                  1.0910         0.358793   
     38. B(H  36,C  33)                  1.0947         0.353988   
     39. B(C  37,H  12)                  1.0926         0.356662   
     40. B(C  37,H  13)                  1.0936         0.355321   
     41. B(C  37,H  14)                  1.0926         0.356646   
     42. B(C  37,C  28)                  1.5294         0.374336   
     43. B(H  38,C  24)                  1.0835         0.368751   
     44. B(C  39,C  25)                  1.3781         0.652771   
     45. B(H  40,C  25)                  1.0821         0.370656   
     46. B(H  41,C  39)                  1.0823         0.370453   
     47. B(S  42,C  23)                  1.7499         0.448997   
     48. B(S  42,C  39)                  1.6958         0.547810   
     49. B(C  43,N  10)                  1.4751         0.409331   
     50. B(C  44,N  10)                  1.4777         0.405489   
     51. B(C  45,C  44)                  1.5299         0.373714   
     52. B(C  46,C  44)                  1.1078         1.761893   
     53. B(C  47,C  44)                  1.1083         1.758492   
     54. B(C  47,C  46)                  1.7983         0.139400   
     55. B(C  48,C  45)                  1.5383         0.362295   
     56. B(H  49,C  45)                  1.1103         0.334272   
     57. B(H  50,C  45)                  1.1108         0.333604   
     58. B(C  51,C  43)                  1.5303         0.373114   
     59. B(C  51,C  48)                  1.5407         0.359216   
     60. B(H  52,H  41)                  4.6362         0.010000   
     61. B(H  52,C  48)                  1.1118         0.332335   
     62. B(H  53,C  48)                  1.1116         0.332570   
     63. B(C  54,C  43)                  1.1118         1.736145   
     64. B(C  55,C  43)                  1.1109         1.741677   
     65. B(C  55,C  54)                  1.8266         0.125635   
     66. B(H  56,C  51)                  1.1110         0.333372   
     67. B(H  57,C  51)                  1.1136         0.330191   
     68. B(H  58,C  54)                  1.0700         0.387551   
     69. B(H  59,C  54)                  1.0700         0.387559   
     70. B(H  59,H  14)                  4.6769         0.010000   
     71. B(H  60,C  54)                  1.0700         0.387557   
     72. B(H  61,C  55)                  1.0700         0.387557   
     73. B(H  62,C  55)                  1.0700         0.387556   
     74. B(H  63,C  55)                  1.0700         0.387553   
     75. B(H  64,C  47)                  1.0700         0.387548   
     76. B(H  65,C  47)                  1.0700         0.387552   
     77. B(H  66,C  47)                  1.0700         0.387551   
     78. B(H  67,C  46)                  1.0700         0.387554   
     79. B(H  68,C  46)                  1.0700         0.387551   
     80. B(H  69,C  46)                  1.0700         0.387553   
     81. A(C   1,C   0,C   5)          120.2003         0.426901   
     82. A(C   1,C   0,N  10)          118.6018         0.407291   
     83. A(C   5,C   0,N  10)          121.1515         0.411905   
     84. A(C   0,C   1,C   2)          117.5144         0.426342   
     85. A(C   2,C   1,B  11)          119.1115         0.394064   
     86. A(C   0,C   1,B  11)          123.2904         0.390204   
     87. A(C   1,C   2,C   3)          122.4297         0.431779   
     88. A(C   3,C   2,H   6)          119.2137         0.353158   
     89. A(C   1,C   2,H   6)          118.3137         0.352300   
     90. A(C   2,C   3,H   7)          120.2933         0.353412   
     91. A(C   4,C   3,H   7)          120.5261         0.354952   
     92. A(C   2,C   3,C   4)          119.1743         0.434898   
     93. A(C   5,C   4,H   8)          119.5837         0.353373   
     94. A(C   3,C   4,C   5)          119.9055         0.434987   
     95. A(C   3,C   4,H   8)          120.5103         0.354844   
     96. A(C   0,C   5,H   9)          120.0219         0.353065   
     97. A(C   0,C   5,C   4)          120.7716         0.432435   
     98. A(C   4,C   5,H   9)          119.2061         0.353554   
     99. A(C  43,N  10,C  44)          117.0564         0.369655   
    100. A(C   0,N  10,C  44)          118.9279         0.380862   
    101. A(C   0,N  10,C  43)          120.3508         0.381486   
    102. A(H  26,B  11,H  27)          110.4273         0.272289   
    103. A(C  23,B  11,H  27)          101.3058         0.253433   
    104. A(C   1,B  11,H  27)          112.0180         0.310624   
    105. A(C   1,B  11,C  23)          108.0390         0.291094   
    106. A(C   1,B  11,H  26)          121.9004         0.314269   
    107. A(C  23,B  11,H  26)          100.3892         0.256138   
    108. A(H  16,C  15,H  18)          108.8542         0.289886   
    109. A(H  17,C  15,C  29)          109.6210         0.325287   
    110. A(H  18,C  15,C  29)          111.3677         0.325684   
    111. A(H  16,C  15,C  29)          110.6211         0.324960   
    112. A(H  16,C  15,H  17)          108.1858         0.289549   
    113. A(H  17,C  15,H  18)          108.1009         0.290164   
    114. A(H  20,C  19,C  29)          108.6663         0.323815   
    115. A(H  21,C  19,C  29)          111.7111         0.323656   
    116. A(H  22,C  19,C  29)          111.0360         0.323664   
    117. A(H  20,C  19,H  21)          108.4822         0.289785   
    118. A(H  20,C  19,H  22)          108.1031         0.289792   
    119. A(H  21,C  19,H  22)          108.7432         0.289656   
    120. A(C  24,C  23,S  42)          108.4765         0.430917   
    121. A(B  11,C  23,S  42)          112.0639         0.315287   
    122. A(B  32,C  23,S  42)          120.5217         0.394630   
    123. A(B  11,C  23,B  32)           77.1274         0.291518 C 
    124. A(C  24,C  23,B  32)          121.3690         0.395002   
    125. A(B  11,C  23,C  24)          113.2540         0.315562   
    126. A(C  23,C  24,H  38)          120.8767         0.353278   
    127. A(C  23,C  24,C  25)          114.7313         0.430356   
    128. A(C  25,C  24,H  38)          124.3844         0.352524   
    129. A(C  24,C  25,C  39)          111.4564         0.435735   
    130. A(C  24,C  25,H  40)          124.7811         0.352831   
    131. A(C  39,C  25,H  40)          123.7593         0.357755   
    132. A(B  11,H  27,B  32)           89.4792         0.193898 C 
    133. A(C  29,C  28,C  37)          113.2218         0.354139   
    134. A(O  30,C  28,C  37)          107.7152         0.374479   
    135. A(C  33,C  28,C  37)          110.0453         0.365294   
    136. A(O  30,C  28,C  33)          108.3753         0.376236   
    137. A(C  29,C  28,O  30)          102.1847         0.364639   
    138. A(C  29,C  28,C  33)          114.6914         0.355771   
    139. A(C  15,C  29,C  19)          110.2502         0.365211   
    140. A(C  15,C  29,C  28)          114.6322         0.355777   
    141. A(C  19,C  29,C  28)          113.0058         0.354053   
    142. A(C  15,C  29,O  31)          108.7519         0.376691   
    143. A(C  19,C  29,O  31)          106.8067         0.374831   
    144. A(C  28,C  29,O  31)          102.7621         0.365069   
    145. A(C  28,O  30,B  32)          106.2427         0.417048   
    146. A(C  29,O  31,B  32)          106.5508         0.416277   
    147. A(C  23,B  32,O  30)          121.4320         0.403932   
    148. A(C  23,B  32,O  31)          121.6362         0.402703   
    149. A(O  30,B  32,O  31)          113.5276         0.450190   
    150. A(C  28,C  33,H  34)          109.5844         0.325302   
    151. A(C  28,C  33,H  35)          111.3928         0.325681   
    152. A(H  34,C  33,H  35)          108.1294         0.290185   
    153. A(C  28,C  33,H  36)          110.5876         0.324960   
    154. A(H  34,C  33,H  36)          108.2071         0.289572   
    155. A(H  35,C  33,H  36)          108.8511         0.289893   
    156. A(H  12,C  37,C  28)          108.7236         0.323917   
    157. A(H  13,C  37,C  28)          111.2964         0.323716   
    158. A(H  14,C  37,C  28)          111.6355         0.323914   
    159. A(H  12,C  37,H  14)          107.9481         0.289963   
    160. A(H  13,C  37,H  14)          108.5961         0.289792   
    161. A(H  12,C  37,H  13)          108.5380         0.289794   
    162. A(C  25,C  39,H  41)          126.8104         0.357722   
    163. A(C  25,C  39,S  42)          112.8436         0.452298   
    164. A(H  41,C  39,S  42)          120.3418         0.365400   
    165. A(C  23,S  42,C  39)           92.4778         0.446228   
    166. A(C  54,C  43,C  55)          110.5301         0.639362   
    167. A(N  10,C  43,C  51)          109.1783         0.366704   
    168. A(N  10,C  43,C  54)          110.8159         0.482295   
    169. A(C  51,C  43,C  54)          106.4586         0.477329   
    170. A(N  10,C  43,C  55)          111.0111         0.482578   
    171. A(C  51,C  43,C  55)          108.7101         0.477609   
    172. A(N  10,C  44,C  45)          111.0214         0.366213   
    173. A(N  10,C  44,C  46)          109.6814         0.482766   
    174. A(C  45,C  44,C  46)          108.7496         0.478767   
    175. A(N  10,C  44,C  47)          111.4682         0.482594   
    176. A(C  45,C  44,C  47)          107.3476         0.478597   
    177. A(C  46,C  44,C  47)          108.4819         0.642401   
    178. A(C  44,C  45,C  48)          111.2225         0.361477   
    179. A(C  44,C  45,H  49)          105.9688         0.320408   
    180. A(C  48,C  45,H  49)          108.3800         0.318788   
    181. A(C  44,C  45,H  50)          113.2672         0.320303   
    182. A(C  48,C  45,H  50)          110.4527         0.318684   
    183. A(H  49,C  45,H  50)          107.2596         0.284064   
    184. A(C  44,C  46,H  69)          109.4715         0.428891   
    185. A(C  47,C  46,H  67)           91.4308         0.280417   
    186. A(C  44,C  46,H  68)          109.4712         0.428891   
    187. A(C  47,C  46,H  68)           88.0468         0.280417   
    188. A(H  67,C  46,H  68)          109.4711         0.297665   
    189. A(C  47,C  46,H  69)          145.1344         0.280417   
    190. A(C  44,C  46,H  67)          109.4711         0.428891   
    191. A(H  67,C  46,H  69)          109.4712         0.297665   
    192. A(H  68,C  46,H  69)          109.4712         0.297665   
    193. A(C  44,C  46,C  47)           35.7688         0.400796   
    194. A(C  44,C  47,H  64)          109.4712         0.428742   
    195. A(C  46,C  47,H  64)          145.2204         0.280416   
    196. A(C  44,C  47,H  65)          109.4717         0.428742   
    197. A(C  46,C  47,H  65)           89.7205         0.280417   
    198. A(H  64,C  47,H  65)          109.4709         0.297664   
    199. A(C  44,C  47,H  66)          109.4714         0.428742   
    200. A(H  64,C  47,H  66)          109.4715         0.297664   
    201. A(H  65,C  47,H  66)          109.4707         0.297665   
    202. A(C  44,C  47,C  46)           35.7492         0.400660   
    203. A(C  46,C  47,H  66)           89.7200         0.280417   
    204. A(C  45,C  48,H  52)          106.4303         0.318486   
    205. A(C  51,C  48,H  52)          111.3345         0.318043   
    206. A(C  45,C  48,H  53)          111.9243         0.318523   
    207. A(C  51,C  48,H  53)          107.1346         0.318080   
    208. A(H  52,C  48,H  53)          107.7631         0.283671   
    209. A(C  45,C  48,C  51)          112.2184         0.359048   
    210. A(C  43,C  51,C  48)          111.2103         0.360853   
    211. A(C  43,C  51,H  56)          113.6054         0.320182   
    212. A(C  48,C  51,H  56)          110.0347         0.318204   
    213. A(C  43,C  51,H  57)          105.3597         0.319681   
    214. A(C  48,C  51,H  57)          108.8765         0.317708   
    215. A(H  56,C  51,H  57)          107.4904         0.283492   
    216. A(C  43,C  54,C  55)           34.7195         0.392531   
    217. A(C  43,C  54,H  58)          109.4711         0.427760   
    218. A(C  55,C  54,H  58)          144.1906         0.275965   
    219. A(C  43,C  54,H  59)          109.4713         0.427762   
    220. A(C  55,C  54,H  59)           90.3147         0.275966   
    221. A(H  58,C  54,H  59)          109.4713         0.297666   
    222. A(C  43,C  54,H  60)          109.4715         0.427761   
    223. A(C  55,C  54,H  60)           90.3148         0.275965   
    224. A(H  58,C  54,H  60)          109.4711         0.297665   
    225. A(H  59,C  54,H  60)          109.4711         0.297666   
    226. A(C  43,C  55,H  61)          109.4707         0.428005   
    227. A(C  54,C  55,H  61)           88.7465         0.275965   
    228. A(C  43,C  55,H  62)          109.4716         0.428005   
    229. A(C  54,C  55,H  62)           91.9010         0.275965   
    230. A(H  61,C  55,H  62)          109.4712         0.297666   
    231. A(C  43,C  55,H  63)          109.4714         0.428005   
    232. A(C  54,C  55,H  63)          144.1298         0.275965   
    233. A(H  61,C  55,H  63)          109.4715         0.297666   
    234. A(H  62,C  55,H  63)          109.4708         0.297665   
    235. A(C  43,C  55,C  54)           34.7504         0.392750   
    236. D(B  11,C   1,C   0,N  10)      1.5413         0.022565   
    237. D(C   2,C   1,C   0,C   5)      0.6267         0.022565   
    238. D(B  11,C   1,C   0,C   5)   -176.0113         0.022565   
    239. D(C   2,C   1,C   0,N  10)    178.1793         0.022565   
    240. D(H   6,C   2,C   1,C   0)   -178.0770         0.025396   
    241. D(C   3,C   2,C   1,C   0)     -0.4803         0.025396   
    242. D(C   3,C   2,C   1,B  11)    176.3031         0.025396   
    243. D(H   6,C   2,C   1,B  11)     -1.2935         0.025396   
    244. D(H   7,C   3,C   2,C   1)   -179.1880         0.026180   
    245. D(C   4,C   3,C   2,H   6)    177.4811         0.026180   
    246. D(H   7,C   3,C   2,H   6)     -1.6121         0.026180   
    247. D(C   4,C   3,C   2,C   1)     -0.0947         0.026180   
    248. D(C   5,C   4,C   3,C   2)      0.5305         0.027645   
    249. D(C   5,C   4,C   3,H   7)    179.6216         0.027645   
    250. D(H   8,C   4,C   3,C   2)   -179.7382         0.027645   
    251. D(H   8,C   4,C   3,H   7)     -0.6471         0.027645   
    252. D(H   9,C   5,C   0,C   1)   -179.9990         0.025792   
    253. D(C   4,C   5,C   0,N  10)   -177.7011         0.025792   
    254. D(C   0,C   5,C   4,C   3)     -0.3809         0.026242   
    255. D(C   0,C   5,C   4,H   8)    179.8853         0.026242   
    256. D(C   4,C   5,C   0,C   1)     -0.2119         0.025792   
    257. D(H   9,C   5,C   4,C   3)    179.4079         0.026242   
    258. D(H   9,C   5,C   0,N  10)      2.5119         0.025792   
    259. D(H   9,C   5,C   4,H   8)     -0.3259         0.026242   
    260. D(C  44,N  10,C   0,C   5)     32.6149         0.018693   
    261. D(C  44,N  10,C   0,C   1)   -144.9135         0.018693   
    262. D(C  43,N  10,C   0,C   5)   -125.1838         0.018693   
    263. D(C  43,N  10,C   0,C   1)     57.2879         0.018693   
    264. D(H  26,B  11,C   1,C   0)    -42.7028         0.010000   
    265. D(C  23,B  11,C   1,C   0)     72.5183         0.010000   
    266. D(C  23,B  11,C   1,C   2)   -104.0687         0.010000   
    267. D(H  26,B  11,C   1,C   2)    140.7102         0.010000   
    268. D(H  27,B  11,C   1,C   0)   -176.7434         0.010000   
    269. D(C  24,C  23,B  11,H  26)    123.6833         0.010000   
    270. D(B  32,C  23,B  11,H  27)     -3.9514         0.010000   
    271. D(C  24,C  23,B  11,C   1)     -4.9795         0.010000   
    272. D(B  32,C  23,B  11,C   1)    113.9007         0.010000   
    273. D(C  24,C  23,B  11,H  27)   -122.8315         0.010000   
    274. D(B  32,C  23,B  11,H  26)   -117.4366         0.010000   
    275. D(C  25,C  24,C  23,B  11)   -123.8588         0.029927   
    276. D(H  38,C  24,C  23,B  32)    -33.5613         0.029927   
    277. D(C  25,C  24,C  23,B  32)    147.4026         0.029927   
    278. D(H  38,C  24,C  23,B  11)     55.1773         0.029927   
    279. D(C  25,C  24,C  23,S  42)      1.2170         0.029927   
    280. D(C  39,C  25,C  24,C  23)     -0.6883         0.024954   
    281. D(C  39,C  25,C  24,H  38)   -179.6859         0.024954   
    282. D(H  40,C  25,C  24,C  23)    178.6778         0.024954   
    283. D(H  40,C  25,C  24,H  38)     -0.3198         0.024954   
    284. D(C  15,C  29,C  28,C  37)     31.2616         0.010000   
    285. D(C  19,C  29,C  15,H  17)     51.4292         0.011778   
    286. D(C  19,C  29,C  15,H  18)    171.0111         0.011778   
    287. D(C  28,C  29,C  15,H  16)     61.0697         0.011778   
    288. D(C  28,C  29,C  19,H  20)    168.7610         0.011156   
    289. D(C  28,C  29,C  15,H  18)    -60.1280         0.011778   
    290. D(C  15,C  29,C  19,H  20)    -61.5009         0.011156   
    291. D(C  15,C  29,C  19,H  21)     58.1473         0.011156   
    292. D(C  28,C  29,C  15,H  17)   -179.7100         0.011778   
    293. D(C  15,C  29,C  19,H  22)    179.7274         0.011156   
    294. D(C  28,C  29,C  19,H  21)    -71.5908         0.011156   
    295. D(C  28,C  29,C  19,H  22)     49.9892         0.011156   
    296. D(C  15,C  29,C  28,O  30)    146.8172         0.010000   
    297. D(C  19,C  29,C  15,H  16)    -67.7911         0.011778   
    298. D(C  15,C  29,C  28,C  33)    -96.1671         0.010000   
    299. D(C  19,C  29,C  28,O  30)    -85.7123         0.010000   
    300. D(C  19,C  29,C  28,C  33)     31.3034         0.010000   
    301. D(C  19,C  29,C  28,C  37)    158.7322         0.010000   
    302. D(B  32,O  30,C  28,C  29)    -25.8359         0.016738   
    303. D(B  32,O  30,C  28,C  33)   -147.3054         0.016738   
    304. D(B  32,O  30,C  28,C  37)     93.6648         0.016738   
    305. D(B  32,O  31,C  29,C  15)   -143.3766         0.016973   
    306. D(B  32,O  31,C  29,C  19)     97.6520         0.016973   
    307. D(B  32,O  31,C  29,C  28)    -21.4927         0.016973   
    308. D(O  30,B  32,C  23,B  11)    104.6179         0.010000   
    309. D(O  31,B  32,O  30,C  28)     13.9303         0.033817   
    310. D(O  31,B  32,C  23,B  11)    -97.5584         0.010000   
    311. D(O  30,B  32,C  23,S  42)     -3.5965         0.010000   
    312. D(C  23,B  32,O  30,C  28)    173.4121         0.033817   
    313. D(O  31,B  32,C  23,C  24)     12.0136         0.010000   
    314. D(C  23,B  32,O  31,C  29)   -153.3448         0.032581   
    315. D(O  30,B  32,C  23,C  24)   -145.8101         0.010000   
    316. D(O  30,B  32,O  31,C  29)      6.0901         0.032581   
    317. D(H  34,C  33,C  28,C  29)    179.6635         0.011776   
    318. D(H  34,C  33,C  28,O  30)    -66.9141         0.011776   
    319. D(H  34,C  33,C  28,C  37)     50.6351         0.011776   
    320. D(H  35,C  33,C  28,C  29)    -60.7271         0.011776   
    321. D(H  35,C  33,C  28,O  30)     52.6954         0.011776   
    322. D(H  35,C  33,C  28,C  37)    170.2445         0.011776   
    323. D(H  12,C  37,C  28,O  30)     55.7327         0.011186   
    324. D(H  12,C  37,C  28,C  29)    167.9522         0.011186   
    325. D(H  12,C  37,C  28,C  33)    -62.2251         0.011186   
    326. D(H  13,C  37,C  28,C  29)    -72.5477         0.011186   
    327. D(H  13,C  37,C  28,C  33)     57.2750         0.011186   
    328. D(H  13,C  37,C  28,O  30)    175.2328         0.011186   
    329. D(H  41,C  39,C  25,C  24)    179.0402         0.029687   
    330. D(H  41,C  39,C  25,H  40)     -0.3336         0.029687   
    331. D(S  42,C  39,C  25,C  24)     -0.2059         0.029687   
    332. D(S  42,C  39,C  25,H  40)   -179.5797         0.029687   
    333. D(C  39,S  42,C  23,B  11)    124.6673         0.010000   
    334. D(C  39,S  42,C  23,C  24)     -1.1069         0.010000   
    335. D(C  39,S  42,C  23,B  32)   -147.6306         0.010000   
    336. D(C  23,S  42,C  39,C  25)      0.7717         0.010000   
    337. D(C  23,S  42,C  39,H  41)   -178.5289         0.010000   
    338. D(C  51,C  43,N  10,C   0)    120.9170         0.014294   
    339. D(C  51,C  43,N  10,C  44)    -37.2837         0.014294   
    340. D(C  54,C  43,N  10,C   0)      3.9711         0.014294   
    341. D(C  54,C  43,N  10,C  44)   -154.2295         0.014294   
    342. D(C  55,C  43,N  10,C   0)   -119.2543         0.014294   
    343. D(C  45,C  44,N  10,C   0)    179.4409         0.014031   
    344. D(C  45,C  44,N  10,C  43)    -22.0372         0.014031   
    345. D(C  46,C  44,N  10,C   0)     59.2309         0.014031   
    346. D(C  46,C  44,N  10,C  43)   -142.2473         0.014031   
    347. D(C  47,C  44,N  10,C   0)    -60.9307         0.014031   
    348. D(C  48,C  45,C  44,N  10)     59.1607         0.011151   
    349. D(C  48,C  45,C  44,C  46)    179.9224         0.011151   
    350. D(C  48,C  45,C  44,C  47)    -62.8994         0.011151   
    351. D(H  49,C  45,C  44,N  10)    -58.4175         0.011151   
    352. D(H  49,C  45,C  44,C  46)     62.3443         0.011151   
    353. D(H  49,C  45,C  44,C  47)    179.5225         0.011151   
    354. D(C  47,C  46,C  44,N  10)   -121.9639         0.366136   
    355. D(C  47,C  46,C  44,C  45)    116.4527         0.366136   
    356. D(H  67,C  46,C  44,N  10)    -58.4169         0.366136   
    357. D(H  67,C  46,C  44,C  45)    179.9998         0.366136   
    358. D(H  67,C  46,C  44,C  47)     63.5470         0.366136   
    359. D(H  68,C  46,C  44,N  10)   -178.4167         0.366136   
    360. D(H  68,C  46,C  44,C  45)     59.9999         0.366136   
    361. D(C  46,C  47,C  44,N  10)    120.8657         0.364415   
    362. D(C  46,C  47,C  44,C  45)   -117.3532         0.364415   
    363. D(H  64,C  47,C  44,N  10)    -59.1344         0.364415   
    364. D(H  64,C  47,C  46,H  69)      5.8566         0.010000   
    365. D(H  64,C  47,C  44,C  46)    180.0000         0.364415   
    366. D(H  65,C  47,C  44,N  10)   -179.1342         0.364415   
    367. D(H  65,C  47,C  44,C  45)    -57.3530         0.364415   
    368. D(C  44,C  47,C  46,H  67)   -122.3965         0.010000   
    369. D(C  44,C  47,C  46,H  68)    128.1661         0.010000   
    370. D(C  44,C  47,C  46,H  69)      5.8566         0.010000   
    371. D(H  64,C  47,C  46,C  44)     -0.0000         0.010000   
    372. D(H  64,C  47,C  46,H  67)   -122.3965         0.010000   
    373. D(H  64,C  47,C  44,C  45)     62.6468         0.364415   
    374. D(H  64,C  47,C  46,H  68)    128.1660         0.010000   
    375. D(H  65,C  47,C  46,C  44)   -125.2635         0.010000   
    376. D(C  51,C  48,C  45,C  44)    -33.1574         0.010521   
    377. D(C  51,C  48,C  45,H  49)     82.9480         0.010521   
    378. D(C  51,C  48,C  45,H  50)   -159.8193         0.010521   
    379. D(H  52,C  48,C  45,C  44)   -155.1747         0.010521   
    380. D(H  52,C  48,C  45,H  49)    -39.0693         0.010521   
    381. D(H  52,C  48,C  45,H  50)     78.1633         0.010521   
    382. D(C  48,C  51,C  43,N  10)     62.5953         0.011118   
    383. D(C  48,C  51,C  43,C  54)   -177.7300         0.011118   
    384. D(C  48,C  51,C  43,C  55)    -58.6427         0.011118   
    385. D(H  56,C  51,C  43,N  10)   -172.6104         0.011118   
    386. D(H  56,C  51,C  43,C  54)    -52.9357         0.011118   
    387. D(H  56,C  51,C  43,C  55)     66.1516         0.011118   
    388. D(C  43,C  51,C  48,C  45)    -25.7126         0.010356   
    389. D(C  43,C  51,C  48,H  52)     93.4672         0.010356   
    390. D(C  43,C  51,C  48,H  53)   -148.9420         0.010356   
    391. D(H  56,C  51,C  48,C  45)   -152.4905         0.010356   
    392. D(H  56,C  51,C  48,H  52)    -33.3108         0.010356   
    393. D(H  56,C  51,C  48,H  53)     84.2801         0.010356   
    394. D(C  55,C  54,C  43,N  10)   -123.5025         0.353233   
    395. D(C  55,C  54,C  43,C  51)    117.8918         0.353233   
    396. D(H  58,C  54,C  43,N  10)     56.4976         0.353233   
    397. D(H  58,C  54,C  43,C  51)    -62.1081         0.353233   
    398. D(H  58,C  54,C  43,C  55)   -179.9999         0.353233   
    399. D(H  59,C  54,C  43,N  10)    -63.5024         0.353233   
    400. D(H  59,C  54,C  43,C  51)    177.8919         0.353233   
    401. D(C  54,C  55,C  43,N  10)    123.3895         0.355981   
    402. D(C  54,C  55,C  43,C  51)   -116.5031         0.355981   
    403. D(H  61,C  55,C  43,N  10)    179.9999         0.355981   
    404. D(H  61,C  55,C  43,C  51)    -59.8927         0.355981   
    405. D(H  61,C  55,C  43,C  54)     56.6104         0.355981   
    406. D(H  62,C  55,C  43,N  10)     60.0000         0.355981   
    407. D(H  62,C  55,C  43,C  51)   -179.8927         0.355981   
    408. D(C  43,C  55,C  54,H  58)      0.0001         0.010000   
    409. D(C  43,C  55,C  54,H  59)   -125.2631         0.010000   
    410. D(C  43,C  55,C  54,H  60)    125.2633         0.010000   
    411. D(H  61,C  55,C  54,C  43)   -128.0580         0.010000   
    412. D(H  61,C  55,C  54,H  58)   -128.0579         0.010000   
    413. D(H  61,C  55,C  54,H  59)    106.6789         0.010000   
    414. D(H  61,C  55,C  54,H  60)     -2.7947         0.010000   
    415. D(H  62,C  55,C  54,C  43)    122.4989         0.010000   
    -----------------------------------------------------------------

Number of atoms                         .... 70
Number of degrees of freedom            .... 415


         *************************************************************
         *                GEOMETRY OPTIMIZATION CYCLE   1            *
         *************************************************************
---------------------------------
CARTESIAN COORDINATES (ANGSTROEM)
---------------------------------
  C     -2.234950   -1.448240    0.976900
  C     -1.070950   -0.725410    0.630150
  C     -0.026690   -1.433210    0.027580
  C     -0.099270   -2.802460   -0.224440
  C     -1.245580   -3.496250    0.134500
  C     -2.309630   -2.820070    0.728930
  H      0.886740   -0.896800   -0.215510
  H      0.737930   -3.320130   -0.682460
  H     -1.323660   -4.564130   -0.047880
  H     -3.204880   -3.372290    0.996360
  N     -3.300290   -0.756410    1.629350
  B     -0.870510    0.814030    0.960920
  H      1.942020    3.878210   -0.004850
  H      3.520120    3.086850   -0.186510
  H      2.024990    2.133470   -0.273890
  C      4.102770    0.760920    1.236600
  H      4.992420    1.395110    1.168250
  H      4.409630   -0.217630    1.614730
  H      3.690040    0.623490    0.236070
  C      3.600510    1.351360    3.617350
  H      3.759870    0.311970    3.914590
  H      4.548480    1.888250    3.712060
  H      2.875520    1.794310    4.305800
  C     -0.568530    0.984640    2.876020
  C     -0.697820   -0.223870    3.564540
  C     -1.632490   -0.207040    4.607130
  H     -1.748070    1.612820    0.808880
  H      0.176210    1.243520    0.515340
  C      2.548720    2.788370    1.741580
  C      3.077980    1.374880    2.179710
  O      1.185450    2.762720    2.213290
  O      1.884960    0.567140    2.156760
  B      0.818690    1.437720    2.258110
  C      3.260510    3.964390    2.395050
  H      2.832800    4.901010    2.028620
  H      3.150860    3.942770    3.480300
  H      4.326660    3.955110    2.147020
  C      2.512640    2.974980    0.223990
  H     -0.116810   -1.092270    3.277550
  C     -2.221530    1.032110    4.736110
  H     -1.876560   -1.056780    5.231140
  H     -2.984930    1.316220    5.448740
  S     -1.640650    2.157740    3.608610
  C     -3.920930    0.422890    0.996870
  C     -4.097260   -1.469790    2.648900
  C     -5.175960   -0.559010    3.238370
  C     -3.434540   -1.812900    3.467610
  C     -4.609740   -2.353080    2.218160
  C     -6.130190   -0.046700    2.145900
  H     -4.638460    0.311320    3.669990
  H     -5.749110   -1.034280    4.062690
  C     -5.414870    0.158210    0.796830
  H     -6.559510    0.906290    2.524960
  H     -6.971960   -0.750320    1.966720
  C     -3.494100    0.599330   -0.014460
  C     -3.801020    1.325550    1.633270
  H     -5.931340    0.946140    0.207990
  H     -5.471110   -0.787720    0.211880
  H     -3.618480   -0.279290   -0.612340
  H     -2.452210    0.826780    0.072850
  H     -4.000830    1.420300   -0.477200
  H     -4.259020    2.164460    1.152270
  H     -2.759630    1.523050    1.779550
  H     -4.268920    1.158540    2.580940
  H     -5.255070   -2.039160    1.424490
  H     -5.187900   -2.835800    2.978170
  H     -3.881020   -3.037040    1.835970
  H     -2.674880   -2.451530    3.067650
  H     -4.010340   -2.352710    4.190080
  H     -2.978290   -0.965870    3.935880

----------------------------
CARTESIAN COORDINATES (A.U.)
----------------------------
  NO LB      ZA    FRAG     MASS         X           Y           Z
   0 C     6.0000    0    12.011   -4.223443   -2.736777    1.846073
   1 C     6.0000    0    12.011   -2.023802   -1.370826    1.190811
   2 C     6.0000    0    12.011   -0.050437   -2.708374    0.052119
   3 C     6.0000    0    12.011   -0.187593   -5.295882   -0.424130
   4 C     6.0000    0    12.011   -2.353805   -6.606955    0.254168
   5 C     6.0000    0    12.011   -4.364568   -5.329160    1.377478
   6 H     1.0000    0     1.008    1.675696   -1.694706   -0.407255
   7 H     1.0000    0     1.008    1.394486   -6.274136   -1.289662
   8 H     1.0000    0     1.008   -2.501355   -8.624956   -0.090480
   9 H     1.0000    0     1.008   -6.056345   -6.372705    1.882848
  10 N     7.0000    0    14.007   -6.236644   -1.429408    3.079025
  11 B     5.0000    0    10.810   -1.645025    1.538294    1.815876
  12 H     1.0000    0     1.008    3.669886    7.328755   -0.009165
  13 H     1.0000    0     1.008    6.652063    5.833301   -0.352453
  14 H     1.0000    0     1.008    3.826677    4.031674   -0.517577
  15 C     6.0000    0    12.011    7.753112    1.437930    2.336835
  16 H     1.0000    0     1.008    9.434307    2.636376    2.207673
  17 H     1.0000    0     1.008    8.332993   -0.411261    3.051397
  18 H     1.0000    0     1.008    6.973165    1.178225    0.446108
  19 C     6.0000    0    12.011    6.803978    2.553700    6.835801
  20 H     1.0000    0     1.008    7.105125    0.589538    7.397503
  21 H     1.0000    0     1.008    8.595382    3.568275    7.014777
  22 H     1.0000    0     1.008    5.433945    3.390754    8.136783
  23 C     6.0000    0    12.011   -1.074366    1.860700    5.434890
  24 C     6.0000    0    12.011   -1.318689   -0.423053    6.736004
  25 C     6.0000    0    12.011   -3.084959   -0.391249    8.706214
  26 H     1.0000    0     1.008   -3.303374    3.047788    1.528562
  27 H     1.0000    0     1.008    0.332989    2.349912    0.973851
  28 C     6.0000    0    12.011    4.816383    5.269256    3.291109
  29 C     6.0000    0    12.011    5.816539    2.598147    4.119055
  30 O     8.0000    0    15.999    2.240176    5.220784    4.182512
  31 O     8.0000    0    15.999    3.562058    1.071739    4.075686
  32 B     5.0000    0    10.810    1.547100    2.716897    4.267209
  33 C     6.0000    0    12.011    6.161471    7.491611    4.525989
  34 H     1.0000    0     1.008    5.353216    9.261567    3.833536
  35 H     1.0000    0     1.008    5.954262    7.450756    6.576814
  36 H     1.0000    0     1.008    8.176202    7.474075    4.057280
  37 C     6.0000    0    12.011    4.748201    5.621897    0.423280
  38 H     1.0000    0     1.008   -0.220739   -2.064091    6.193672
  39 C     6.0000    0    12.011   -4.198083    1.950405    8.949951
  40 H     1.0000    0     1.008   -3.546184   -1.997025    9.885422
  41 H     1.0000    0     1.008   -5.640700    2.487295   10.296626
  42 S    16.0000    0    32.060   -3.100379    4.077538    6.819285
  43 C     6.0000    0    12.011   -7.409484    0.799146    1.883811
  44 C     6.0000    0    12.011   -7.742699   -2.777501    5.005696
  45 C     6.0000    0    12.011   -9.781147   -1.056376    6.119632
  46 C     6.0000    0    12.011   -6.490340   -3.425885    6.552833
  47 C     6.0000    0    12.011   -8.711146   -4.446677    4.191715
  48 C     6.0000    0    12.011  -11.584380   -0.088250    4.055163
  49 H     1.0000    0     1.008   -8.765419    0.588310    6.935276
  50 H     1.0000    0     1.008  -10.864243   -1.954506    7.677371
  51 C     6.0000    0    12.011  -10.232621    0.298974    1.505790
  52 H     1.0000    0     1.008  -12.395677    1.712640    4.771483
  53 H     1.0000    0     1.008  -13.175095   -1.417899    3.716562
  54 C     6.0000    0    12.011   -6.602892    1.132570   -0.027325
  55 C     6.0000    0    12.011   -7.182887    2.504926    3.086433
  56 H     1.0000    0     1.008  -11.208608    1.787945    0.393044
  57 H     1.0000    0     1.008  -10.338900   -1.488575    0.400395
  58 H     1.0000    0     1.008   -6.837936   -0.527782   -1.157155
  59 H     1.0000    0     1.008   -4.634005    1.562388    0.137667
  60 H     1.0000    0     1.008   -7.560473    2.683978   -0.901777
  61 H     1.0000    0     1.008   -8.048381    4.090237    2.177475
  62 H     1.0000    0     1.008   -5.214945    2.878147    3.362862
  63 H     1.0000    0     1.008   -8.067090    2.189323    4.877270
  64 H     1.0000    0     1.008   -9.930643   -3.853454    2.691896
  65 H     1.0000    0     1.008   -9.803710   -5.358885    5.627926
  66 H     1.0000    0     1.008   -7.334065   -5.739174    3.469480
  67 H     1.0000    0     1.008   -5.054791   -4.632720    5.797018
  68 H     1.0000    0     1.008   -7.578444   -4.445978    7.918104
  69 H     1.0000    0     1.008   -5.628152   -1.825230    7.437735

--------------------------------
INTERNAL COORDINATES (ANGSTROEM)
--------------------------------
 C      0   0   0     0.000000000000     0.00000000     0.00000000
 C      1   0   0     1.413370005130     0.00000000     0.00000000
 C      2   1   0     1.398052356852   117.51443330     0.00000000
 C      3   2   1     1.394140415919   122.42968457   359.51965013
 C      4   3   2     1.387158644063   119.17428488   359.90525261
 C      5   4   3     1.393832421706   119.90545231     0.53049327
 H      3   2   1     1.086822341094   118.31371242   181.92295989
 H      4   3   2     1.085664952598   120.29334930   180.81199847
 H      5   4   3     1.086152220087   120.51034415   180.26178437
 H      6   5   4     1.085328657965   119.20613620   179.40790257
 N      1   2   3     1.428029785054   118.60184440   178.17929270
 B      2   1   3     1.587280851047   123.29037434   183.36203017
 H     12   2   1     4.269922220158   137.05728836   188.53485911
 H     13  12   2     1.774725504184   106.79020924   327.97563526
 H     13  12   2     1.767309879478    49.97661987   349.22093887
 C     14  13  12     2.788310144066   120.36651552   330.99845353
 H     16  14  13     1.094689819584    69.79938279   217.16457307
 H     16  14  13     1.093025827234   169.12395661   135.93720699
 H     16  14  13     1.091005654752    63.76639695    92.74842228
 C     16  14  13     2.503768172915   104.28082105   307.20241639
 H     20  16  14     1.092739126828    90.29143742   172.82502404
 H     20  16  14     1.093557486875    91.38867766   281.32052561
 H     20  16  14     1.093516623148   145.80827678    48.73976639
 C     12   2   1     1.946254788690   108.03898136    72.51832529
 C     24  12   2     1.396879420208   113.25399698   355.02054193
 C     25  24  12     1.400316094994   114.73127572   236.14121796
 H     12   2   1     1.196366657551   121.90044055   317.29719939
 H     12   2   1     1.215987645867   112.01795441   183.25660502
 C     13  12   2     2.146125313326    68.76040943   271.98929653
 C     16  14  13     1.522037416689    80.73912206   333.28250374
 O     29  13  12     1.442800519649    90.45643809   319.26046696
 O     30  16  14     1.440925858780   108.75187068   111.21580247
 B     31  29  13     1.375553245062   106.24274832   117.14820537
 C     29  13  12     1.522068029163    95.11816337   210.76528331
 H     34  29  13     1.092915281895   109.58436466    25.27401543
 H     34  29  13     1.090989509299   111.39277765   144.88345614
 H     34  29  13     1.094660139861   110.58755766   266.07121174
 C     13  12   2     1.092611258820    72.74607102   316.89776823
 H     25  24  12     1.083537927440   120.87668174    55.17732875
 C     26  25  24     1.378077169283   111.45637601   359.31166828
 H     26  25  24     1.082135256149   124.78113108   178.67779585
 H     40  26  25     1.082284421490   126.81038569   179.04018659
 S     40  26  25     1.695795011580   112.84358737   359.79413176
 C     11   1   2     1.475118113915   120.35080705    57.28785034
 C     11   1   2     1.477685490150   118.92789967   215.08653345
 C     45  11   1     1.529898290508   111.02139276   179.44094331
 C     45  11   1     1.107794355736   109.68142200    59.23085965
 C     45  11   1     1.108320315658   111.46821861   299.06925973
 C     46  45  11     1.538345582078   111.22254801    59.16066413
 H     46  45  11     1.110259601760   105.96883028   301.58254101
 H     46  45  11     1.110804194176   113.26716741   184.26153730
 C     44  11   1     1.530335985201   109.17825526   120.91698133
 H     49  46  45     1.111841754073   106.43033720   204.82527554
 H     49  46  45     1.111648914766   111.92430131    87.33758717
 C     44  11   1     1.111801821999   110.81587052     3.97113419
 C     44  11   1     1.110935841397   111.01108926   240.74568201
 H     52  44  11     1.110993920505   113.60538474   187.38956025
 H     52  44  11     1.113603612153   105.35968663   304.78827578
 H     55  44  11     1.070001861307   109.47110889    56.49761357
 H     55  44  11     1.069995939572   109.47126249   296.49760755
 H     55  44  11     1.069997823082   109.47149557   176.49754267
 H     56  44  11     1.069997657988   109.47073007   179.99993586
 H     56  44  11     1.069998701167   109.47161503    59.99995963
 H     56  44  11     1.070000550934   109.47142845   300.00007050
 H     48  45  11     1.070004039338   109.47118643   300.86564867
 H     48  45  11     1.070001300981   109.47168619   180.86581564
 H     48  45  11     1.070001549578   109.47140708    60.86610184
 H     47  45  11     1.069999810327   109.47110337   301.58313586
 H     47  45  11     1.070001578036   109.47119725   181.58331037
 H     47  45  11     1.070000316028   109.47149910    61.58322057

---------------------------
INTERNAL COORDINATES (A.U.)
---------------------------
 C      0   0   0     0.000000000000     0.00000000     0.00000000
 C      1   0   0     2.670882235594     0.00000000     0.00000000
 C      2   1   0     2.641936075334   117.51443330     0.00000000
 C      3   2   1     2.634543578319   122.42968457   359.51965013
 C      4   3   2     2.621349941582   119.17428488   359.90525261
 C      5   4   3     2.633961553605   119.90545231     0.53049327
 H      3   2   1     2.053796580894   118.31371242   181.92295989
 H      4   3   2     2.051609433607   120.29334930   180.81199847
 H      5   4   3     2.052530235715   120.51034415   180.26178437
 H      6   5   4     2.050973928850   119.20613620   179.40790257
 N      1   2   3     2.698585204834   118.60184440   178.17929270
 B      2   1   3     2.999526106096   123.29037434   183.36203017
 H     12   2   1     8.068983609244   137.05728836   188.53485911
 H     13  12   2     3.353745165792   106.79020924   327.97563526
 H     13  12   2     3.339731665987    49.97661987   349.22093887
 C     14  13  12     5.269142548719   120.36651552   330.99845353
 H     16  14  13     2.068663960605    69.79938279   217.16457307
 H     16  14  13     2.065519470774   169.12395661   135.93720699
 H     16  14  13     2.061701898040    63.76639695    92.74842228
 C     16  14  13     4.731436149637   104.28082105   307.20241639
 H     20  16  14     2.064977685524    90.29143742   172.82502404
 H     20  16  14     2.066524161893    91.38867766   281.32052561
 H     20  16  14     2.066446940639   145.80827678    48.73976639
 C     12   2   1     3.677888537457   108.03898136    72.51832529
 C     24  12   2     2.639719546303   113.25399698   355.02054193
 C     25  24  12     2.646213920461   114.73127572   236.14121796
 H     12   2   1     2.260805338526   121.90044055   317.29719939
 H     12   2   1     2.297883632919   112.01795441   183.25660502
 C     13  12   2     4.055589091263    68.76040943   271.98929653
 C     16  14  13     2.876233883122    80.73912206   333.28250374
 O     29  13  12     2.726497848016    90.45643809   319.26046696
 O     30  16  14     2.722955252379   108.75187068   111.21580247
 B     31  29  13     2.599418915793   106.24274832   117.14820537
 C     29  13  12     2.876291732315    95.11816337   210.76528331
 H     34  29  13     2.065310570359   109.58436466    25.27401543
 H     34  29  13     2.061671387556   111.39277765   144.88345614
 H     34  29  13     2.068607874057   110.58755766   266.07121174
 C     13  12   2     2.064736050009    72.74607102   316.89776823
 H     25  24  12     2.047589938577   120.87668174    55.17732875
 C     26  25  24     2.604188441355   111.45637601   359.31166828
 H     26  25  24     2.044939273982   124.78113108   178.67779585
 H     40  26  25     2.045221155626   126.81038569   179.04018659
 S     40  26  25     3.204588151156   112.84358737   359.79413176
 C     11   1   2     2.787569250486   120.35080705    57.28785034
 C     11   1   2     2.792420888453   118.92789967   215.08653345
 C     45  11   1     2.891088781815   111.02139276   179.44094331
 C     45  11   1     2.093427945044   109.68142200    59.23085965
 C     45  11   1     2.094421865255   111.46821861   299.06925973
 C     46  45  11     2.907051849456   111.22254801    59.16066413
 H     46  45  11     2.098086584883   105.96883028   301.58254101
 H     46  45  11     2.099115715405   113.26716741   184.26153730
 C     44  11   1     2.891915904914   109.17825526   120.91698133
 H     49  46  45     2.101076419456   106.43033720   204.82527554
 H     49  46  45     2.100712005978   111.92430131    87.33758717
 C     44  11   1     2.101000958773   110.81587052     3.97113419
 C     44  11   1     2.099364492597   111.01108926   240.74568201
 H     52  44  11     2.099474246207   113.60538474   187.38956025
 H     52  44  11     2.104405848714   105.35968663   304.78827578
 H     55  44  11     2.022010480656   109.47110889    56.49761357
 H     55  44  11     2.021999290198   109.47126249   296.49760755
 H     55  44  11     2.022002849517   109.47149557   176.49754267
 H     56  44  11     2.022002537535   109.47073007   179.99993586
 H     56  44  11     2.022004508858   109.47161503    59.99995963
 H     56  44  11     2.022008004411   109.47142845   300.00007050
 H     48  45  11     2.022014596539   109.47118643   300.86564867
 H     48  45  11     2.022009421793   109.47168619   180.86581564
 H     48  45  11     2.022009891574   109.47140708    60.86610184
 H     47  45  11     2.022006604866   109.47110337   301.58313586
 H     47  45  11     2.022009945352   109.47119725   181.58331037
 H     47  45  11     2.022007560502   109.47149910    61.58322057

---------------------
BASIS SET INFORMATION
---------------------
There are 6 groups of distinct atoms

 Group   1 Type C   : 10s4p1d contracted to 3s2p1d pattern {631/31/1}
 Group   2 Type H   : 4s1p contracted to 2s1p pattern {31/1}
 Group   3 Type N   : 10s4p1d contracted to 3s2p1d pattern {631/31/1}
 Group   4 Type B   : 10s4p1d contracted to 3s2p1d pattern {631/31/1}
 Group   5 Type O   : 10s4p1d contracted to 3s2p1d pattern {631/31/1}
 Group   6 Type S   : 16s10p1d contracted to 4s3p1d pattern {6631/631/1}

Atom   0C    basis set group =>   1
Atom   1C    basis set group =>   1
Atom   2C    basis set group =>   1
Atom   3C    basis set group =>   1
Atom   4C    basis set group =>   1
Atom   5C    basis set group =>   1
Atom   6H    basis set group =>   2
Atom   7H    basis set group =>   2
Atom   8H    basis set group =>   2
Atom   9H    basis set group =>   2
Atom  10N    basis set group =>   3
Atom  11B    basis set group =>   4
Atom  12H    basis set group =>   2
Atom  13H    basis set group =>   2
Atom  14H    basis set group =>   2
Atom  15C    basis set group =>   1
Atom  16H    basis set group =>   2
Atom  17H    basis set group =>   2
Atom  18H    basis set group =>   2
Atom  19C    basis set group =>   1
Atom  20H    basis set group =>   2
Atom  21H    basis set group =>   2
Atom  22H    basis set group =>   2
Atom  23C    basis set group =>   1
Atom  24C    basis set group =>   1
Atom  25C    basis set group =>   1
Atom  26H    basis set group =>   2
Atom  27H    basis set group =>   2
Atom  28C    basis set group =>   1
Atom  29C    basis set group =>   1
Atom  30O    basis set group =>   5
Atom  31O    basis set group =>   5
Atom  32B    basis set group =>   4
Atom  33C    basis set group =>   1
Atom  34H    basis set group =>   2
Atom  35H    basis set group =>   2
Atom  36H    basis set group =>   2
Atom  37C    basis set group =>   1
Atom  38H    basis set group =>   2
Atom  39C    basis set group =>   1
Atom  40H    basis set group =>   2
Atom  41H    basis set group =>   2
Atom  42S    basis set group =>   6
Atom  43C    basis set group =>   1
Atom  44C    basis set group =>   1
Atom  45C    basis set group =>   1
Atom  46C    basis set group =>   1
Atom  47C    basis set group =>   1
Atom  48C    basis set group =>   1
Atom  49H    basis set group =>   2
Atom  50H    basis set group =>   2
Atom  51C    basis set group =>   1
Atom  52H    basis set group =>   2
Atom  53H    basis set group =>   2
Atom  54C    basis set group =>   1
Atom  55C    basis set group =>   1
Atom  56H    basis set group =>   2
Atom  57H    basis set group =>   2
Atom  58H    basis set group =>   2
Atom  59H    basis set group =>   2
Atom  60H    basis set group =>   2
Atom  61H    basis set group =>   2
Atom  62H    basis set group =>   2
Atom  63H    basis set group =>   2
Atom  64H    basis set group =>   2
Atom  65H    basis set group =>   2
Atom  66H    basis set group =>   2
Atom  67H    basis set group =>   2
Atom  68H    basis set group =>   2
Atom  69H    basis set group =>   2
---------------------------------
AUXILIARY/J BASIS SET INFORMATION
---------------------------------
There are 6 groups of distinct atoms

 Group   1 Type C   : 12s5p4d2f1g contracted to 6s4p3d1f1g pattern {711111/2111/211/2/1}
 Group   2 Type H   : 5s2p1d contracted to 3s1p1d pattern {311/2/1}
 Group   3 Type N   : 12s5p4d2f1g contracted to 6s4p3d1f1g pattern {711111/2111/211/2/1}
 Group   4 Type B   : 12s5p4d2f1g contracted to 6s4p3d1f1g pattern {711111/2111/211/2/1}
 Group   5 Type O   : 12s5p4d2f1g contracted to 6s4p3d1f1g pattern {711111/2111/211/2/1}
 Group   6 Type S   : 14s5p5d2f1g contracted to 8s4p3d1f1g pattern {71111111/2111/311/2/1}

Atom   0C    basis set group =>   1
Atom   1C    basis set group =>   1
Atom   2C    basis set group =>   1
Atom   3C    basis set group =>   1
Atom   4C    basis set group =>   1
Atom   5C    basis set group =>   1
Atom   6H    basis set group =>   2
Atom   7H    basis set group =>   2
Atom   8H    basis set group =>   2
Atom   9H    basis set group =>   2
Atom  10N    basis set group =>   3
Atom  11B    basis set group =>   4
Atom  12H    basis set group =>   2
Atom  13H    basis set group =>   2
Atom  14H    basis set group =>   2
Atom  15C    basis set group =>   1
Atom  16H    basis set group =>   2
Atom  17H    basis set group =>   2
Atom  18H    basis set group =>   2
Atom  19C    basis set group =>   1
Atom  20H    basis set group =>   2
Atom  21H    basis set group =>   2
Atom  22H    basis set group =>   2
Atom  23C    basis set group =>   1
Atom  24C    basis set group =>   1
Atom  25C    basis set group =>   1
Atom  26H    basis set group =>   2
Atom  27H    basis set group =>   2
Atom  28C    basis set group =>   1
Atom  29C    basis set group =>   1
Atom  30O    basis set group =>   5
Atom  31O    basis set group =>   5
Atom  32B    basis set group =>   4
Atom  33C    basis set group =>   1
Atom  34H    basis set group =>   2
Atom  35H    basis set group =>   2
Atom  36H    basis set group =>   2
Atom  37C    basis set group =>   1
Atom  38H    basis set group =>   2
Atom  39C    basis set group =>   1
Atom  40H    basis set group =>   2
Atom  41H    basis set group =>   2
Atom  42S    basis set group =>   6
Atom  43C    basis set group =>   1
Atom  44C    basis set group =>   1
Atom  45C    basis set group =>   1
Atom  46C    basis set group =>   1
Atom  47C    basis set group =>   1
Atom  48C    basis set group =>   1
Atom  49H    basis set group =>   2
Atom  50H    basis set group =>   2
Atom  51C    basis set group =>   1
Atom  52H    basis set group =>   2
Atom  53H    basis set group =>   2
Atom  54C    basis set group =>   1
Atom  55C    basis set group =>   1
Atom  56H    basis set group =>   2
Atom  57H    basis set group =>   2
Atom  58H    basis set group =>   2
Atom  59H    basis set group =>   2
Atom  60H    basis set group =>   2
Atom  61H    basis set group =>   2
Atom  62H    basis set group =>   2
Atom  63H    basis set group =>   2
Atom  64H    basis set group =>   2
Atom  65H    basis set group =>   2
Atom  66H    basis set group =>   2
Atom  67H    basis set group =>   2
Atom  68H    basis set group =>   2
Atom  69H    basis set group =>   2


           ************************************************************
           *        Program running with 62 parallel MPI-processes    *
           *              working on a common directory               *
           ************************************************************
------------------------------------------------------------------------------
                             ORCA STARTUP CALCULATIONS
                           -- RI-GTO INTEGRALS CHOSEN --
------------------------------------------------------------------------------
------------------------------------------------------------------------------
                   ___                                                        
                  /   \      - P O W E R E D   B Y -                         
                 /     \                                                     
                 |  |  |   _    _      __       _____    __    __             
                 |  |  |  | |  | |    /  \     |  _  \  |  |  /  |          
                  \  \/   | |  | |   /    \    | | | |  |  | /  /          
                 / \  \   | |__| |  /  /\  \   | |_| |  |  |/  /          
                |  |  |   |  __  | /  /__\  \  |    /   |      \           
                |  |  |   | |  | | |   __   |  |    \   |  |\   \          
                \     /   | |  | | |  |  |  |  | |\  \  |  | \   \       
                 \___/    |_|  |_| |__|  |__|  |_| \__\ |__|  \__/        
                                                                              
                      - O R C A' S   B I G   F R I E N D -                    
                                      &                                       
                       - I N T E G R A L  F E E D E R -                       
                                                                              
 v1 FN, 2020, v2 2021, v3 2022-2024                                           
------------------------------------------------------------------------------


----------------------
SHARK INTEGRAL PACKAGE
----------------------

Number of atoms                             ...     70
Number of basis functions                   ...    633
Number of shells                            ...    305
Maximum angular momentum                    ...      2
Integral batch strategy                     ... SHARK/LIBINT Hybrid
RI-J (if used) integral strategy            ... SPLIT-RIJ (Revised 2003 algorithm where possible)
Printlevel                                  ...      1
Contraction scheme used                     ... SEGMENTED contraction
Prescreening option                         ... SCHWARTZ
   Thresh                                   ... 2.500e-11
   Tcut                                     ... 2.500e-12
   Tpresel                                  ... 2.500e-12 
Coulomb Range Separation                    ... NOT USED
Exchange Range Separation                   ... Long Range
   Mu parameter                             ... 2.500e-01
   Scaling (regular/separated)              ... 1.957e-01 8.043e-01
Robust (split-)RI terms used:
  metric    (central integrals)             ... YES
  density   (r.h.s.  integrals)             ... YES
  potential (l.h.s.  integrals)             ... YES
Multipole approximations                    ... NOT USED
Finite Nucleus Model                        ... NOT USED
CABS basis                                  ... NOT available
Auxiliary Coulomb fitting basis             ... AVAILABLE
   # of basis functions in Aux-J            ...   1950
   # of shells in Aux-J                     ...    662
   Maximum angular momentum in Aux-J        ...      4
Auxiliary J/K fitting basis                 ... NOT available
Auxiliary Correlation fitting basis         ... NOT available
Auxiliary 'external' fitting basis          ... NOT available

Checking pre-screening integrals            ... done (  0.0 sec) Dimension = 305
   => SHARK Basis and OBASIS are compatible. Storing Pre-screening
Shell pair information
Shell pair cut-off parameter TPreSel        ...   2.5e-12
Total number of shell pairs                 ...     46665
Shell pairs after pre-screening             ...     30513
Total number of primitive shell pairs       ...    226926
Primitive shell pairs kept                  ...     83492
          la=0 lb=0:   9855 shell pairs
          la=1 lb=0:  11582 shell pairs
          la=1 lb=1:   3482 shell pairs
          la=2 lb=0:   3321 shell pairs
          la=2 lb=1:   1981 shell pairs
          la=2 lb=2:    292 shell pairs

Checking whether 4 symmetric matrices of dimension 633 fit in memory
:Max Core in MB      =   4129.00
 MB in use           =     42.57
 MB left             =   4086.43
 MB needed           =      6.12
 Data fit in memory  = YES
Calculating RI/J V-Matrix + Cholesky decomp.... done (  0.3 sec)
Calculating Nuclear repulsion               ... done (  0.0 sec) ENN=   3769.570237099601 Eh

Diagonalization of the overlap matrix:
Smallest eigenvalue                        ... 3.982e-04
Time for diagonalization                   ...    0.070 sec
Threshold for overlap eigenvalues          ... 1.000e-07
Number of eigenvalues below threshold      ... 0
Time for construction of square roots      ...    0.052 sec
Total time needed                          ...    0.142 sec

-------------------
DFT GRID GENERATION
-------------------

General Integration Accuracy     IntAcc      ... 4.388
Radial Grid Type                 RadialGrid  ... OptM3 with GC (2021)
Angular Grid (max. ang.)         AngularGrid ... 4 (Lebedev-302)
Angular grid pruning method      GridPruning ... 4 (adaptive)
Weight generation scheme         WeightScheme... mBecke (2022)
Basis function cutoff            BFCut       ... 1.0000e-11
Integration weight cutoff        WCut        ... 1.0000e-14
[...]

 68 H s       :     0.894799  s :     0.894799
      pz      :     0.019564  p :     0.038788
      px      :     0.011399
      py      :     0.007825

 69 H s       :     0.881342  s :     0.881342
      pz      :     0.007077  p :     0.040608
      px      :     0.012631
      py      :     0.020900



                      *****************************
                      * MAYER POPULATION ANALYSIS *
                      *****************************

  NA   - Mulliken gross atomic population
  ZA   - Total nuclear charge
  QA   - Mulliken gross atomic charge
  VA   - Mayer's total valence
  BVA  - Mayer's bonded valence
  FA   - Mayer's free valence

  ATOM       NA         ZA         QA         VA         BVA        FA
  0 C      5.8728     6.0000     0.1272     3.9912     3.9912     0.0000
  1 C      5.9222     6.0000     0.0778     3.8354     3.8354     0.0000
  2 C      6.2041     6.0000    -0.2041     3.9119     3.9119    -0.0000
  3 C      6.1136     6.0000    -0.1136     3.9202     3.9202    -0.0000
  4 C      6.1421     6.0000    -0.1421     3.9518     3.9518     0.0000
  5 C      6.0954     6.0000    -0.0954     3.8828     3.8828    -0.0000
  6 H      0.8763     1.0000     0.1237     0.9757     0.9757    -0.0000
  7 H      0.8921     1.0000     0.1079     0.9593     0.9593    -0.0000
  8 H      0.8890     1.0000     0.1110     0.9586     0.9586     0.0000
  9 H      0.8965     1.0000     0.1035     0.9670     0.9670     0.0000
 10 N      7.5048     7.0000    -0.5048     2.8562     2.8562    -0.0000
 11 B      4.9748     5.0000     0.0252     3.5176     3.5176    -0.0000
 12 H      0.8633     1.0000     0.1367     0.9585     0.9585     0.0000
 13 H      0.8860     1.0000     0.1140     0.9574     0.9574    -0.0000
 14 H      0.8601     1.0000     0.1399     0.9585     0.9585    -0.0000
 15 C      6.3542     6.0000    -0.3542     3.8711     3.8711    -0.0000
 16 H      0.8846     1.0000     0.1154     0.9568     0.9568    -0.0000
 17 H      0.8698     1.0000     0.1302     0.9581     0.9581    -0.0000
 18 H      0.8645     1.0000     0.1355     0.9597     0.9597    -0.0000
 19 C      6.3532     6.0000    -0.3532     3.8657     3.8657     0.0000
 20 H      0.8693     1.0000     0.1307     0.9595     0.9595    -0.0000
 21 H      0.8843     1.0000     0.1157     0.9573     0.9573     0.0000
 22 H      0.8706     1.0000     0.1294     0.9626     0.9626    -0.0000
 23 C      6.5164     6.0000    -0.5164     3.7258     3.7258     0.0000
 24 C      6.0015     6.0000    -0.0015     3.9292     3.9292     0.0000
 25 C      6.0997     6.0000    -0.0997     3.9196     3.9196     0.0000
 26 H      1.0524     1.0000    -0.0524     0.9827     0.9827    -0.0000
 27 H      1.0663     1.0000    -0.0663     0.9691     0.9691    -0.0000
 28 C      5.7889     6.0000     0.2111     3.8333     3.8333    -0.0000
 29 C      5.7784     6.0000     0.2216     3.8286     3.8286     0.0000
 30 O      8.4988     8.0000    -0.4988     2.0534     2.0534     0.0000
 31 O      8.5081     8.0000    -0.5081     2.0433     2.0433    -0.0000
 32 B      4.2906     5.0000     0.7094     3.3083     3.3083    -0.0000
 33 C      6.3542     6.0000    -0.3542     3.8745     3.8745    -0.0000
 34 H      0.8663     1.0000     0.1337     0.9577     0.9577     0.0000
 35 H      0.8704     1.0000     0.1296     0.9607     0.9607    -0.0000
 36 H      0.8854     1.0000     0.1146     0.9570     0.9570    -0.0000
 37 C      6.3539     6.0000    -0.3539     3.8634     3.8634     0.0000
 38 H      0.8316     1.0000     0.1684     0.9613     0.9613     0.0000
 39 C      6.3000     6.0000    -0.3000     3.8751     3.8751     0.0000
 40 H      0.8500     1.0000     0.1500     0.9532     0.9532    -0.0000
 41 H      0.8178     1.0000     0.1822     0.9462     0.9462     0.0000
 42 S     15.6419    16.0000     0.3581     2.5476     2.5476    -0.0000
 43 C      5.8525     6.0000     0.1475     3.9308     3.9308     0.0000
 44 C      5.8501     6.0000     0.1499     3.9388     3.9388    -0.0000
 45 C      6.1987     6.0000    -0.1987     3.8599     3.8599    -0.0000
 46 C      6.3229     6.0000    -0.3229     3.8678     3.8678     0.0000
 47 C      6.3282     6.0000    -0.3282     3.8409     3.8409    -0.0000
 48 C      6.2323     6.0000    -0.2323     3.8846     3.8846     0.0000
 49 H      0.8843     1.0000     0.1157     0.9590     0.9590    -0.0000
 50 H      0.9016     1.0000     0.0984     0.9596     0.9596    -0.0000
 51 C      6.2013     6.0000    -0.2013     3.8597     3.8597    -0.0000
 52 H      0.8860     1.0000     0.1140     0.9534     0.9534    -0.0000
 53 H      0.8894     1.0000     0.1106     0.9531     0.9531     0.0000
 54 C      6.3361     6.0000    -0.3361     3.8684     3.8684     0.0000
 55 C      6.3037     6.0000    -0.3037     3.8462     3.8462    -0.0000
 56 H      0.8961     1.0000     0.1039     0.9596     0.9596    -0.0000
 57 H      0.8973     1.0000     0.1027     0.9591     0.9591    -0.0000
 58 H      0.8941     1.0000     0.1059     0.9654     0.9654    -0.0000
 59 H      0.8718     1.0000     0.1282     0.9615     0.9615    -0.0000
 60 H      0.8958     1.0000     0.1042     0.9611     0.9611    -0.0000
 61 H      0.9094     1.0000     0.0906     0.9601     0.9601    -0.0000
 62 H      0.8790     1.0000     0.1210     0.9648     0.9648    -0.0000
 63 H      0.8921     1.0000     0.1079     0.9636     0.9636    -0.0000
 64 H      0.8958     1.0000     0.1042     0.9641     0.9641     0.0000
 65 H      0.9001     1.0000     0.0999     0.9605     0.9605    -0.0000
 66 H      0.8892     1.0000     0.1108     0.9653     0.9653    -0.0000
 67 H      0.8871     1.0000     0.1129     0.9686     0.9686     0.0000
 68 H      0.9045     1.0000     0.0955     0.9622     0.9622    -0.0000
 69 H      0.8846     1.0000     0.1154     0.9690     0.9690     0.0000

  Mayer bond orders larger than 0.100000
B(  0-C ,  1-C ) :   1.4115 B(  0-C ,  5-C ) :   1.3896 B(  0-C , 10-N ) :   0.9627 
B(  1-C ,  2-C ) :   1.3559 B(  1-C , 11-B ) :   0.9921 B(  2-C ,  3-C ) :   1.4459 
B(  2-C ,  6-H ) :   0.9260 B(  3-C ,  4-C ) :   1.4286 B(  3-C ,  7-H ) :   0.9516 
B(  4-C ,  5-C ) :   1.4449 B(  4-C ,  8-H ) :   0.9477 B(  5-C ,  9-H ) :   0.9426 
B( 10-N , 43-C ) :   0.9403 B( 10-N , 44-C ) :   0.9567 B( 11-B , 23-C ) :   0.3744 
B( 11-B , 26-H ) :   0.9452 B( 11-B , 27-H ) :   0.8120 B( 11-B , 32-B ) :   0.1644 
B( 12-H , 37-C ) :   0.9557 B( 13-H , 37-C ) :   0.9533 B( 14-H , 37-C ) :   0.9520 
B( 15-C , 16-H ) :   0.9559 B( 15-C , 17-H ) :   0.9580 B( 15-C , 18-H ) :   0.9542 
B( 15-C , 29-C ) :   1.0048 B( 19-C , 20-H ) :   0.9572 B( 19-C , 21-H ) :   0.9537 
B( 19-C , 22-H ) :   0.9570 B( 19-C , 29-C ) :   0.9914 B( 23-C , 24-C ) :   1.4134 
B( 23-C , 32-B ) :   0.7612 B( 23-C , 42-S ) :   1.0805 B( 24-C , 25-C ) :   1.3830 
B( 24-C , 38-H ) :   0.9234 B( 25-C , 39-C ) :   1.5154 B( 25-C , 40-H ) :   0.9421 
B( 27-H , 32-B ) :   0.1414 B( 28-C , 29-C ) :   0.9592 B( 28-C , 30-O ) :   0.8696 
B( 28-C , 33-C ) :   1.0069 B( 28-C , 37-C ) :   0.9921 B( 29-C , 31-O ) :   0.8675 
B( 30-O , 32-B ) :   1.0832 B( 31-O , 32-B ) :   1.0631 B( 33-C , 34-H ) :   0.9580 
B( 33-C , 35-H ) :   0.9551 B( 33-C , 36-H ) :   0.9561 B( 39-C , 41-H ) :   0.9302 
B( 39-C , 42-S ) :   1.2572 B( 43-C , 51-C ) :   0.9897 B( 43-C , 54-C ) :   0.9988 
B( 43-C , 55-C ) :   0.9826 B( 44-C , 45-C ) :   0.9935 B( 44-C , 46-C ) :   0.9987 
B( 44-C , 47-C ) :   0.9703 B( 45-C , 48-C ) :   0.9880 B( 45-C , 49-H ) :   0.9517 
B( 45-C , 50-H ) :   0.9562 B( 46-C , 67-H ) :   0.9544 B( 46-C , 68-H ) :   0.9613 
B( 46-C , 69-H ) :   0.9494 B( 47-C , 64-H ) :   0.9610 B( 47-C , 65-H ) :   0.9584 
B( 47-C , 66-H ) :   0.9606 B( 48-C , 51-C ) :   0.9891 B( 48-C , 52-H ) :   0.9630 
B( 48-C , 53-H ) :   0.9626 B( 51-C , 56-H ) :   0.9550 B( 51-C , 57-H ) :   0.9524 
B( 54-C , 58-H ) :   0.9600 B( 54-C , 59-H ) :   0.9549 B( 54-C , 60-H ) :   0.9591 
B( 55-C , 61-H ) :   0.9569 B( 55-C , 62-H ) :   0.9563 B( 55-C , 63-H ) :   0.9620 


-------
TIMINGS
-------

Total SCF time: 0 days 0 hours 0 min 24 sec 

Total time                  ....      24.827 sec
Sum of individual times     ....      23.195 sec  ( 93.4%)

SCF preparation             ....       0.785 sec  (  3.2%)
Fock matrix formation       ....      20.267 sec  ( 81.6%)
  Startup                   ....       0.045 sec  (  0.2% of F)
  Split-RI-J                ....       1.464 sec  (  7.2% of F)
  Chain of spheres X        ....      18.498 sec  ( 91.3% of F)
  XC integration            ....       1.130 sec  (  5.6% of F)
    XC Preparation          ....       0.000 sec  (  0.0% of XC)
    Basis function eval.    ....       0.270 sec  ( 23.9% of XC)
    Density eval.           ....       0.295 sec  ( 26.1% of XC)
    XC-Functional eval.     ....       0.030 sec  (  2.7% of XC)
    XC-Potential eval.      ....       0.148 sec  ( 13.1% of XC)
Diagonalization             ....       0.000 sec  (  0.0%)
Density matrix formation    ....       0.159 sec  (  0.6%)
Total Energy calculation    ....       0.058 sec  (  0.2%)
Population analysis         ....       0.842 sec  (  3.4%)
Orbital Transformation      ....       0.172 sec  (  0.7%)
Orbital Orthonormalization  ....       0.000 sec  (  0.0%)
DIIS solution               ....       0.203 sec  (  0.8%)
SOSCF solution              ....       0.709 sec  (  2.9%)
Finished LeanSCF after  25.4 sec

Maximum memory used throughout the entire LEANSCF-calculation: 102.7 MB


-------------------------------------------------------------------------------
                          DFT DISPERSION CORRECTION                            
                                                                               
                              DFTD3 V3.1  Rev 1                                
                              USING zero damping                               
-------------------------------------------------------------------------------
The omegaB97X-D3 functional is recognized. Fit by Chai et al.
Active option DFTDOPT                   ...         3   

molecular C6(AA) [au] = 45680.895854 


            DFT-D V3
 parameters
 s6 scaling factor         :     1.0000 
 rs6 scaling factor        :     1.2810 
 s8 scaling factor         :     1.0000 
 rs8 scaling factor        :     1.0940 
 Damping factor alpha6     :    14.0000 
 Damping factor alpha8     :    16.0000 
 ad hoc parameters k1-k3   :    16.0000     1.3333    -4.0000 

 Edisp/kcal,au: -30.888324169724  -0.049223672552 
 E6   /kcal   : -14.745332380 
 E8   /kcal   : -16.142991789 
 % E8         :  52.262439687 

-------------------------   ----------------
Dispersion correction           -0.049223673
-------------------------   ----------------


-------------------------   --------------------
FINAL SINGLE POINT ENERGY     -1629.042789190473
-------------------------   --------------------

                                *** OPTIMIZATION RUN DONE ***



           ************************************************************
           *        Program running with 62 parallel MPI-processes    *
           *              working on a common directory               *
           ************************************************************

------------------------------------------------------------------------------
                              ORCA PROPERTY CALCULATIONS
------------------------------------------------------------------------------

GBWName                                 ... input.gbw
Number of atoms                         ...     70
Number of basis functions               ...    633
Max core memory                         ...   4129 MB

Electric properties:
Dipole moment                           ... YES
Quadrupole moment                       ...  NO
Static polarizability (Dipole/Dipole)   ...  NO
Static polarizability (Dipole/Quad.)    ...  NO
Static polarizability (Quad./Quad.)     ...  NO
Static polarizability (Velocity)        ...  NO
Static hyperpolarizability              ...  NO

Atomic electric properties:
Dipole moment                           ...  NO
Quadrupole moment                       ...  NO
Static polarizability                   ...  NO

Choice of electric origin               ... Center of mass
Position of electric origin             ...    -1.955989     0.373186     4.080138

General magnetic properties:
Magnetizability                         ...  NO

EPR properties:
g-Tensor (aka g-matrix)                 ...  NO
Zero-Field splitting spin-orbit         ...  NO
Zero-field splitting spin-spin          ...  NO
Hyperfine couplings                     ...  NO (   0 nuclei)
Quadrupole couplings                    ...  NO (   0 nuclei)
Contact density                         ...  NO (   0 nuclei)

NMR properties:
Chemical shifts                         ...  NO (   0 nuclei)
Spin-rotation constants                 ...  NO (   0 nuclei)
Spin-spin couplings                     ...  NO (   0 nuclei,    0 pairs)

Choice of magnetic origin               ... GIAO
Position of magnetic origin             ...     0.000000     0.000000     0.000000

Properties with geometric perturbations:
SCF Hessian                             ...  NO
IR spectrum                             ...  NO
VCD spectrum                            ...  NO
X-ray spectroscopy properties:
SCF XES/XAS/RIXS spectra                ...  NO

SCF SOC stabilization energy            ...  NO
Diagonal Born-Oppenheimer correction    ...  NO

-------------
DIPOLE MOMENT
-------------

Method             : SCF
Type of density    : Electron Density
Multiplicity       :   1
Irrep              :   0
Energy             : -1628.9935655179203877 Eh
Basis              : AO
                                X                 Y                 Z
Electronic contribution:     11.759717129      -3.367430508      16.786263677
Nuclear contribution   :    -10.767332493       3.387770042     -15.685564969
                        -----------------------------------------
Total Dipole Moment    :      0.992384635       0.020339534       1.100698707
                        -----------------------------------------
Magnitude (a.u.)       :      1.482153368
Magnitude (Debye)      :      3.767334466



--------------------
Rotational spectrum 
--------------------
 
Rotational constants in cm-1:             0.007521             0.003142             0.002981 
Rotational constants in MHz :           225.464240            94.195856            89.359609 

Dipole components along the rotational axes: 
x,y,z [a.u.] :     1.099442     0.824974    -0.554458 
x,y,z [Debye]:     2.794559     2.096918    -1.409321 

 

Dipole moment calculation done in   0.1 sec 

Maximum memory used throughout the entire PROP-calculation: 52.2 MB

--------------------------------
SUGGESTED CITATIONS FOR THIS RUN
--------------------------------

Below you find a list of papers that are relevant to this ORCA run
We neither can nor want to force you to cite these papers, but we appreciate if you do
You receive ORCA, which is the product of decades of hard work by many enthusiastic individuals, for free
The only thing we kindly ask in return is that you cite our papers,
We deeply appreciate it, if you show your appreciation for ORCA by not just citing the generic ORCA reference.

Please note that relegating all ORCA citations to the supporting information does *not* help us.
SI sections are not indexed - citations you put there will not count into any citation statistics
But we need these citations in order to attract the funding resources that allow us to do what we are doing

Therefore, if you are a happy ORCA user, please consider citing a few of the papers listed below in the main body of your paper

In addition to the list printed below, the program has created the file input.bibtex that contains the list in bibtex format
You can import this file easily into all common literature databanks and citation aid programs


List of essential papers. We consider these as the minimum necessary citations

  1. Neese, F.
     Software update: the ORCA program system, version 6.0
     WIRES Comput. Molec. Sci. 2025 15(1), e70019
     doi.org/10.1002/wcms.7019

List of papers to cite with high priority. The work reported in these papers was absolutely
necessary for this run to complete.
Our perspective: the developers of density functionals and basis sets usually get cited in chemistry papers
Good! But without the algorithms to do something with them, the functionals or basis sets would not do anything.
Hence, in our opinion, the algorithm design and method developments papers are equally worthy of getting cited

  1. Neese, F.
     An improvement of the resolution of the identity approximation for the formation of the Coulomb matrix
     J. Comp. Chem. 2003 24(14), 1740-1747
     doi.org/10.1002/jcc.10318
  2. Neese, F.; Wennmohs, F.; Hansen, A.; Becker, U.
     Efficient, approximate and parallel Hartree-Fock and hybrid DFT calculations. A 'chain-of-spheres' algorithm for the Hartree-Fock exchange
     Chem. Phys. 2009 356(1-3), 98-109
     doi.org/10.1016/j.chemphys.2008.10.036
  3. Grimme, S.; Antony, J.; Ehrlich, S.; Krieg, H.
     A consistent and accurate ab initio parametrization of density functional dispersion correction (DFT-D) for the 94 elements H-Pu
     J. Chem. Phys. 2010 132 , 154104
     doi.org/10.1063/1.3382344
  4. Helmich-Paris, B.; de Souza, B.; Neese, F.; Izsák, R.
     An improved chain of spheres for exchange algorithm
     J. Chem. Phys. 2021 155(10), 104109
     doi.org/10.1063/5.0058766
  5. Neese, F.
     The SHARK Integral Generation and Digestion System
     J. Comp. Chem. 2022 44(3), 381
     doi.org/10.1002/jcc.26942

List of suggested additional citations. These are papers that are important in the 'surrounding' of 
of this run, or papers that preceded the highly important papers. If you like your results we are grateful for a citation.

  1. Izsak, R.; Neese, F.
     An overlap fitted chain of spheres exchange method
     J. Chem. Phys. 2011 135 , 144105
     doi.org/10.1063/1.3646921
  2. Izsak, R.; Hansen, A.; Neese, F.
     The resolution of identity and chain of spheres approximations for the LPNO-CCSD singles Fock term
     Molec. Phys. 2012 110 , 2413-2417
     doi.org/10.1080/00268976.2012.687466
  3. Neese, F.
     The ORCA program system
     WIRES Comput. Molec. Sci. 2012 2(1), 73-78
     doi.org/10.1002/wcms.81
  4. Izsak, R.; Neese, F.; Klopper, W.
     Robust fitting techniques in the chain of spheres approximation to the Fock exchange: The role of the complementary space
     J. Chem. Phys. 2013 139 , 
     doi.org/10.1063/1.4819264
  5. Neese, F.
     Software update: the ORCA program system, version 4.0
     WIRES Comput. Molec. Sci. 2018 8(1), 1-6
     doi.org/10.1002/wcms.1327
  6. Neese, F.; Wennmohs, F.; Becker, U.; Riplinger, C.
     The ORCA quantum chemistry program package
     J. Chem. Phys. 2020 152(22), 224108
     doi.org/10.1063/5.0004608
  7. Neese, F.
     Software update: The ORCA program system—Version 5.0
     WIRES Comput. Molec. Sci. 2022 12(1), e1606
     doi.org/10.1002/wcms.1606

List of optional additional citations

  1. Neese, F.
     Approximate second-order SCF convergence for spin unrestricted wavefunctions
     Chem. Phys. Lett. 2000 325(1-3), 93-98
     doi.org/10.1016/s0009-2614(00)00662-x

Timings for individual modules:

Sum of individual times          ...     2533.700 sec (=  42.228 min)
Startup calculation              ...      228.121 sec (=   3.802 min)   9.0 %
SCF iterations                   ...     1759.917 sec (=  29.332 min)  69.5 %
Property calculations            ...        0.921 sec (=   0.015 min)   0.0 %
SCF Gradient evaluation          ...      538.640 sec (=   8.977 min)  21.3 %
Geometry relaxation              ...        6.100 sec (=   0.102 min)   0.2 %
                             ****ORCA TERMINATED NORMALLY****
TOTAL RUN TIME: 0 days 0 hours 42 minutes 39 seconds 478 msec
