
                                 *****************
                                 * O   R   C   A *
                                 *****************

                                            #,                                       
                                            ###                                      
                                            ####                                     
                                            #####                                    
                                            ######                                   
                                           ########,                                 
                                     ,,################,,,,,                         
                               ,,#################################,,                 
                          ,,##########################################,,             
                       ,#########################################, ''#####,          
                    ,#############################################,,   '####,        
                  ,##################################################,,,,####,       
                ,###########''''           ''''###############################       
              ,#####''   ,,,,##########,,,,          '''####'''          '####       
            ,##' ,,,,###########################,,,                        '##       
           ' ,,###''''                  '''############,,,                           
         ,,##''                                '''############,,,,        ,,,,,,###''
      ,#''                                            '''#######################'''  
     '                                                          ''''####''''         
             ,#######,   #######,   ,#######,      ##                                
            ,#'     '#,  ##    ##  ,#'     '#,    #''#        ,####,    ,#,          
            ##       ##  ##   ,#'  ##            #'  '#       #'       ,# #          
            ##       ##  #######   ##           ,######,      #####,      #          
            '#,     ,#'  ##    ##  '#,     ,#' ,#      #,     #,   #      #          
             '#######'   ##     ##  '#######'  #'      '#     '####' #    #          



                #########################################################
                #                        -***-                          #
                #          Department of theory and spectroscopy        #
                #                                                       #
                #                      Frank Neese                      #
                #                                                       #
                #     Directorship, Architecture, Infrastructure        #
                #                    SHARK, DRIVERS                     #
                #        Core code/Algorithms in most modules           #
                #                                                       #
                #        Max Planck Institute fuer Kohlenforschung      #
                #                Kaiser Wilhelm Platz 1                 #
                #                 D-45470 Muelheim/Ruhr                 #
                #                      Germany                          #
                #                                                       #
                #                  All rights reserved                  #
                #                        -***-                          #
                #########################################################


                         Program Version 6.1.0  -  RELEASE   -
                                (GIT: $679e74b7b5$)
                          ($2025-06-10 18:02:51 +0200$)


 With contributions from (in alphabetic order):
[Max-Planck-Institut fuer Kohlenforschung]                               
  Daniel Aravena         : Magnetic Suceptibility                        
  Michael Atanasov       : Ab Initio Ligand Field Theory (pilot matlab implementation)
  Alexander A. Auer      : GIAO ZORA, VPT2 properties, NMR spectrum      
  Ute Becker             : All parallelization in ORCA, NUMFREQ, NUMCALC 
  Giovanni Bistoni       : ED, misc. LED, open-shell LED, HFLD           
  Dmytro Bykov           : pre 5.0 version of the SCF Hessian            
  Marcos Casanova-Páez   : Triplet and SCS-CIS(D). UHF-(DLPNO)-IP/EA/STEOM-CCSD. UHF-CVS-IP/STEOM-CCSD   
  Vijay G. Chilkuri      : MRCI spin determinant printing, contributions to CSF-ICE 
  Pauline Colinet        : FMM embedding                                 
  Dipayan Datta          : RHF DLPNO-CCSD density                        
  Achintya Kumar Dutta   : EOM-CC, STEOM-CC                              
  Nicolas Foglia         : Exact transition moments, OPA infrastructure, MCD improvements    
  Dmitry Ganyushin       : Spin-Orbit,Spin-Spin,Magnetic field MRCI      
  Miquel Garcia-Rates    : C-PCM and meta-GGA Hessian, CCSD/C-PCM, Gaussian charge scheme 
  Tiago L. C. Gouveia    : GS-ROHF, GS-ROCIS                             
  Yang Guo               : DLPNO-NEVPT2, F12-NEVPT2, CIM, IAO-localization        
  Andreas Hansen         : Spin unrestricted coupled pair/coupled cluster methods 
  Ingolf Harden          : AUTO-CI MPn and infrastructure                
  Benjamin Helmich-Paris : MC-RPA, TRAH-(SCF,CASSCF), AVAS, COSX integrals, SCF dyn. polar., MC-PDFT, srDFT 
  Lee Huntington         : MR-EOM, pCC                                   
  Robert Izsak           : Overlap fitted RIJCOSX, COSX-SCS-MP3, EOM     
  Riya Kayal             : Wick's Theorem for AUTO-CI, AUTO-CI UHF-CCSDT 
  Emily Kempfer          : AUTO-CI RHF CISDT and CCSDT, approximate NEVPT4
  Christian Kollmar      : KDIIS, OOCD, Brueckner-CCSD(T), CCSD density, CASPT2, CASPT2-K, improved NEVPT2 
  Axel Koslowski         : Symmetry handling                             
  Simone Kossmann        : meta-GGA functionals, TD-DFT gradient, OOMP2, (MP2 Hessian; deprecated post 5.0) 
  Lucas Lang             : DCDCAS, Hyperfine gauge corrections, ICE-SOC+SSC
  Marvin Lechner         : AUTO-CI (C++ implementation), FIC-MRCC        
  Spencer Leger          : CASSCF response                               
  Dagmar Lenk            : GEPOL surface, SMD, ORCA-2-JSON               
  Dimitrios Liakos       : Extrapolation schemes; Compound Job, Property file
  Dimitrios Manganas     : Further ROCIS development; embedding schemes. LFT, Crystal Embedding 
  Dimitrios Pantazis     : SARC Basis sets                               
  Anastasios Papadopoulos: AUTO-CI, single reference methods and gradients 
  Taras Petrenko         : pre 6.0 DFT Hessian and TD-DFT gradient,  ECA, NRVS 
  Petra Pikulova         : Analytic Raman intensities                    
  Peter Pinski           : DLPNO-MP2, DLPNO-MP2 Gradient                 
  Shashank Vittal Rao    : ES-AILFT, MagRelax                            
  Christoph Reimann      : Effective Core Potentials                     
  Marius Retegan         : Local ZFS, SOC                                
  Christoph Riplinger    : Optimizer, TS searches, QM/MM, DLPNO-CCSD(T), (RO)-DLPNO pert. Triples 
  Michael Roemelt        : Original ROCIS implementation, recursive CI coupling coefficients
  Masaaki Saitow         : Open-shell DLPNO-CCSD energy and density      
  Barbara Sandhoefer     : DKH picture change effects                    
  Yorick L. A. Schmerwitz: GMF and freeze-and-release deltaSCF, NEB S-IDPP initial path                    
  Kantharuban Sivalingam : CASSCF convergence/infrastructure, NEVPT2, NEVPT3, NEVPT4(SD), FIC-MRCI and CEPA variants
  Bernardo de Souza      : ESD, SOC TD-DFT                               
  Georgi L. Stoychev     : AutoAux, RI-MP2 NMR, DLPNO-MP2 response, X2C  
  Van Anh Tran           : RI-MP2 g-tensors                              
  Willem Van den Heuvel  : Paramagnetic NMR                              
  Zikuan Wang            : NOTCH, Electric field optimization            
  Frank Wennmohs         : Technical directorship and infrastructure     
  Hang Xu                : AUTO-CI-Response properties                   
                                                                         
[FACCTs GmbH]                                                            
  Markus Bursch, Nicolas Foglia, Miquel Garcia-Rates, Ingolf Harden, Hagen Neugebauer, Anastasios Papadopoulos, 
  Christoph Riplinger, Bernardo de Souza, Georgi L. Stoychev                                                    
                                                                 
  APM, various basis sets, CI-OPT, improved COSX, DLPNO-Multilevel,           
  DOCKER, DRACO, updates on ESD, Fragmentator, GOAT, IRC, LR-CPCM, L-BFGS, MBIS, meta-GGA TD-DFT gradient, ML-optimized integration grids, 
  MM, NACMEs, nearIR, NEB, NEB-TS, NL-DFT gradient (VV10), 2- and 3-layer-ONIOM, interface openCOSMO-RS, QMMM,   
  Crystal-QMMM, RESP, rigid body optimization, SF, symmetry and pop. for TD-DFT, various functionals, SOLVATOR                                   
                                                                         
[Other institutions]                                                     
  V. Asgeirsson          : NEB                                           
  Christoph Bannwarth    : sTDA-DFT, sTD-DFT, PBEh-3c, B97-3c, D3        
  Giovanni Bistoni       : ETS/NOCV, ADLD/ADEX, COVALED                  
  Martin Brehm           : Molecular dynamics                            
  Ronald Cardenas        : ETS/NOCV                                      
  Martina Colucci        : COVALED                                       
  Sebastian Ehlert       : rSCAN, r2SCAN, r2SCAN-3c, D4, dhf basis sets  
  Marvin Friede          : D4 for Fr, Ra, Ac-Lr                          
  Lars Goerigk           : TD-DFT with DH, B97 family of functionals     
  Stefan Grimme          : VdW corrections, initial TS optimization, DFT functionals, gCP, sTDA/sTD-DF 
  Waldemar Hujo          : DFT-NL                                        
  H. Jonsson             : NEB                                           
  Holger Kruse           : gCP                                           
  Marcel Mueller         : wB97X-3c, vDZP basis set                      
  Hagen Neugebauer       : wr2SCAN, Native XTB                           
  Gianluca Regni         : ADLD/ADEX                                     
  Tobias Risthaus        : pre 6.0 range-separated hybrid DFT and stability analysis
  Lukas Wittmann         : regularized MP2, r2SCAN double-hybrids, wr2SCAN        
                                                                         
We gratefully acknowledge several colleagues who have allowed us to      
interface, adapt or use parts of their codes:                            
  Ed Valeev, F. Pavosevic, A. Kumar             : LibInt (2-el integral package), F12 methods 
  Garnet Chan, S. Sharma, J. Yang, R. Olivares  : DMRG                   
  Ulf Ekstrom                                   : XCFun DFT Library      
  Mihaly Kallay                                 : mrcc  (arbitrary order and MRCC methods)
  Frank Weinhold                                : gennbo (NPA and NBO analysis)           
  Simon Mueller                                 : openCOSMO-RS                            
  Christopher J. Cramer and Donald G. Truhlar   : smd solvation model                     
  S Lehtola, MJT Oliveira, MAL Marques          : LibXC Library                           
  Liviu Ungur et al                             : ANISO software                          


 Your calculation uses the libint2 library for the computation of 2-el integrals
 For citations please refer to: http://libint.valeyev.net

 Your ORCA version has been built with support for libXC version: 7.0.0
 For citations please refer to: https://libxc.gitlab.io

 This ORCA versions uses:
   CBLAS   interface :  Fast vector & matrix operations
   LAPACKE interface :  Fast linear algebra routines
   SCALAPACK package :  Parallel linear algebra routines
   Shared memory     :  Shared parallel matrices


  ***********************************
  * Starting time: Sun Aug 31 20:31:50 2025
  * Host name:     Jacobs-MacBook-Pro.local
  * Process ID:    50569
  * Working dir.:  /Users/jacobmolinnielsen/Developer/FrustActivationProject/FRUST/dev/_e0ifd0
  ***********************************

NOTE: MaxCore=3584 MB was set to SCF,MP2,MDCI,CIPSI,MRCI,RASCI and CIS
      => If you want to overwrite this, your respective input block should be placed after the MaxCore statement
Your calculation utilizes the atom-pairwise dispersion correction
with the zero-damping scheme (D30)


XCFun DFT library Copyright 2009-2010 Ulf Ekstrom and contributors.
See http://admol.org/xcfun for more information.
This is free software; see the source code for copying conditions.
There is ABSOLUTELY NO WARRANTY; not even for MERCHANTABILITY or FITNESS FOR A PARTICULAR PURPOSE.
For details see the documentation.
Scientific users of this library should cite U. Ekstrom, L. Visscher, R. Bast, A. J. Thorvaldsen and K. Ruud;
J.Chem.Theor.Comp. 2010, DOI: 10.1021/ct100117s
XCFun Version 0.99 

Warning: RI is on but no J-basis has been assigned. Assigning Def2/J (nothing to worry about!)
================================================================================

----- Orbital basis set information -----
Your calculation utilizes the basis: 6-31G**
   H-He, Li-Ne : W. J. Hehre, R. Ditchfield and J.A. Pople, J. Chem. Phys. 56, 2257 (1972).
                 Note: He and Ne are unpublished basis sets taken from the Gaussian program.
                 Note: Li and B from J. D. Dill and J. A. Pople, J. Chem. Phys. 62, 2921 (1975).
   Na - Ar     : M. M. Francl, W. J. Pietro, W. J. Hehre, J. S. Binkley, M. S. Gordon, 
                 D. J. DeFrees and J. A. Pople, J. Chem. Phys. 77, 3654 (1982).
   K - Zn      : V. A. Rassolov, J. A. Pople, M. A. Ratner, and T. L. Windus, J. Chem. Phys. 109, 1223 (1998).

----- AuxJ basis set information -----
Your calculation utilizes the auxiliary basis: def2/J
   H-Rn: F. Weigend, Phys. Chem. Chem. Phys. 8, 1057 (2006).
   Fr-Lr: K. Eichkorn, F. Weigend, O. Treutler, R. Ahlrichs; Theor. Chem. Acc. 97, 119 (1997).

================================================================================
                                        WARNINGS
                       Please study these warnings very carefully!
================================================================================


================================================================================
                                       INPUT FILE
================================================================================
NAME = input.inp
|  1> # Automatically generated ORCA input
|  2> 
|  3> # Number of cores
|  4> %pal nprocs 10 end
|  5> # RAM per core
|  6> %maxcore 3584
|  7> 
|  8> ! wB97X-D3 
|  9> ! 6-31G** 
| 10> ! TightSCF 
| 11> ! Freq 
| 12> 
| 13> %geom
| 14>   Calc_Hess true
| 15> end
| 16> %Output
| 17>   JSONPropFile True
| 18> End
| 19> 
| 20> 
| 21> *xyz 0 1 
| 22> C        -2.40424600     -1.41534000      1.01570300
| 23> C        -1.13044800     -0.87212400      1.25488500
| 24> C        -0.01741000     -1.62911400      0.85709500
| 25> C        -0.13762200     -2.89528500      0.31162700
| 26> C        -1.39981600     -3.44223400      0.12646500
| 27> C        -2.51413700     -2.69629500      0.46488500
| 28> H         0.97298400     -1.20735600      0.98660700
| 29> H         0.74760400     -3.45031300      0.02577000
| 30> H        -1.51578500     -4.43125100     -0.29937300
| 31> H        -3.50365200     -3.09560400      0.28328000
| 32> N        -3.59241300     -0.68035800      1.30547100
| 33> B        -0.91800500      0.54966800      1.93285700
| 34> H         1.12111600      4.07373700      0.69783000
| 35> H         2.69293300      3.62865300      0.01403300
| 36> H         1.38875800      2.43370800      0.09811100
| 37> C         3.98637300      1.31205300      0.82362700
| 38> H         4.73059900      2.10507400      0.72480500
| 39> H         4.51302200      0.36342600      0.93138200
| 40> H         3.39191000      1.27157100     -0.08675500
| 41> C         3.92249500      1.37527100      3.32079900
| 42> H         4.28222900      0.34723300      3.36900700
| 43> H         4.78291100      2.04510100      3.34663000
| 44> H         3.30304900      1.56395700      4.19904500
| 45> C        -0.07871600      0.40221700      3.57468700
| 46> C         0.20321600     -0.87181900      4.06971600
| 47> C        -0.14844500     -1.06441700      5.40753200
| 48> H        -1.81517100      1.27566100      2.20689400
| 49> H        -0.08002700      1.19915600      1.29957500
| 50> C         2.31273400      2.88417500      2.01677400
| 51> C         3.11476700      1.54971700      2.04104300
| 52> O         1.14140700      2.54229300      2.79346700
| 53> O         2.06626700      0.55360800      2.06258300
| 54> B         0.93988300      1.18173600      2.59050400
| 55> C         3.00720900      4.05294000      2.68667100
| 56> H         2.38083500      4.94187200      2.60923000
| 57> H         3.18922200      3.85399700      3.74077100
| 58> H         3.95984900      4.26349100      2.19634500
| 59> C         1.85554900      3.27236200      0.61536400
| 60> H         0.64997300     -1.63347500      3.44647100
| 61> C        -0.69791800      0.07819400      5.94983400
| 62> H        -0.01559400     -1.98578500      5.95402100
| 63> H        -1.05987800      0.20126400      6.95962700
| 64> S        -0.77755600      1.35131000      4.85447000
| 65> C        -4.21595300      0.11960700      0.22481900
| 66> C        -4.34023800     -1.01929200      2.52713700
| 67> C        -5.24196800      0.17129600      2.85906000
| 68> C        -3.36004100     -1.19785900      3.68718300
| 69> C        -5.16984700     -2.31485300      2.43254000
| 70> C        -6.24891000      0.49960300      1.75257900
| 71> H        -4.58595400      1.02713100      3.03690700
| 72> H        -5.76122900     -0.02932200      3.79948200
| 73> C        -5.74136300      0.08247700      0.36946300
| 74> H        -6.46167600      1.57062800      1.76978100
| 75> H        -7.20030900     -0.00092600      1.94618100
| 76> C        -3.87852100     -0.43898000     -1.16081900
| 77> C        -3.73316600      1.57874500      0.25696200
| 78> H        -6.17133300      0.72794000     -0.40003300
| 79> H        -6.07512600     -0.93008900      0.13521500
| 80> H        -4.24198600     -1.46032200     -1.27984100
| 81> H        -2.80436200     -0.43472900     -1.34826900
| 82> H        -4.35672200      0.18450000     -1.91878400
| 83> H        -4.23748100      2.15923100     -0.52030300
| 84> H        -2.65937800      1.62954600      0.07472000
| 85> H        -3.92775300      2.04853100      1.22063500
| 86> H        -5.87707400     -2.30277200      1.60494500
| 87> H        -5.73498800     -2.46032500      3.35679100
| 88> H        -4.51515900     -3.17843000      2.30881600
| 89> H        -2.67758700     -2.03015300      3.50806700
| 90> H        -3.91244700     -1.40484900      4.60651800
| 91> H        -2.77345500     -0.29022800      3.82796700
| 92> *
| 93> 
| 94> 
| 95>                          ****END OF INPUT****
================================================================================

                       ****************************
                       * Single Point Calculation *
                       ****************************

---------------------------------
CARTESIAN COORDINATES (ANGSTROEM)
---------------------------------
  C     -2.404246   -1.415340    1.015703
  C     -1.130448   -0.872124    1.254885
  C     -0.017410   -1.629114    0.857095
  C     -0.137622   -2.895285    0.311627
  C     -1.399816   -3.442234    0.126465
  C     -2.514137   -2.696295    0.464885
  H      0.972984   -1.207356    0.986607
  H      0.747604   -3.450313    0.025770
  H     -1.515785   -4.431251   -0.299373
  H     -3.503652   -3.095604    0.283280
  N     -3.592413   -0.680358    1.305471
  B     -0.918005    0.549668    1.932857
  H      1.121116    4.073737    0.697830
  H      2.692933    3.628653    0.014033
  H      1.388758    2.433708    0.098111
  C      3.986373    1.312053    0.823627
  H      4.730599    2.105074    0.724805
  H      4.513022    0.363426    0.931382
  H      3.391910    1.271571   -0.086755
  C      3.922495    1.375271    3.320799
  H      4.282229    0.347233    3.369007
  H      4.782911    2.045101    3.346630
  H      3.303049    1.563957    4.199045
  C     -0.078716    0.402217    3.574687
  C      0.203216   -0.871819    4.069716
  C     -0.148445   -1.064417    5.407532
  H     -1.815171    1.275661    2.206894
  H     -0.080027    1.199156    1.299575
  C      2.312734    2.884175    2.016774
  C      3.114767    1.549717    2.041043
  O      1.141407    2.542293    2.793467
  O      2.066267    0.553608    2.062583
  B      0.939883    1.181736    2.590504
  C      3.007209    4.052940    2.686671
  H      2.380835    4.941872    2.609230
  H      3.189222    3.853997    3.740771
  H      3.959849    4.263491    2.196345
  C      1.855549    3.272362    0.615364
  H      0.649973   -1.633475    3.446471
  C     -0.697918    0.078194    5.949834
  H     -0.015594   -1.985785    5.954021
  H     -1.059878    0.201264    6.959627
  S     -0.777556    1.351310    4.854470
  C     -4.215953    0.119607    0.224819
  C     -4.340238   -1.019292    2.527137
  C     -5.241968    0.171296    2.859060
  C     -3.360041   -1.197859    3.687183
  C     -5.169847   -2.314853    2.432540
  C     -6.248910    0.499603    1.752579
  H     -4.585954    1.027131    3.036907
  H     -5.761229   -0.029322    3.799482
  C     -5.741363    0.082477    0.369463
  H     -6.461676    1.570628    1.769781
  H     -7.200309   -0.000926    1.946181
  C     -3.878521   -0.438980   -1.160819
  C     -3.733166    1.578745    0.256962
  H     -6.171333    0.727940   -0.400033
  H     -6.075126   -0.930089    0.135215
  H     -4.241986   -1.460322   -1.279841
  H     -2.804362   -0.434729   -1.348269
  H     -4.356722    0.184500   -1.918784
  H     -4.237481    2.159231   -0.520303
  H     -2.659378    1.629546    0.074720
  H     -3.927753    2.048531    1.220635
  H     -5.877074   -2.302772    1.604945
  H     -5.734988   -2.460325    3.356791
  H     -4.515159   -3.178430    2.308816
  H     -2.677587   -2.030153    3.508067
  H     -3.912447   -1.404849    4.606518
  H     -2.773455   -0.290228    3.827967

----------------------------
CARTESIAN COORDINATES (A.U.)
----------------------------
  NO LB      ZA    FRAG     MASS         X           Y           Z
   0 C     6.0000    0    12.011   -4.543366   -2.674605    1.919401
   1 C     6.0000    0    12.011   -2.136237   -1.648076    2.371389
   2 C     6.0000    0    12.011   -0.032900   -3.078579    1.619675
   3 C     6.0000    0    12.011   -0.260068   -5.471296    0.588890
   4 C     6.0000    0    12.011   -2.645269   -6.504880    0.238984
   5 C     6.0000    0    12.011   -4.751030   -5.095259    0.878505
   6 H     1.0000    0     1.008    1.838673   -2.281572    1.864417
   7 H     1.0000    0     1.008    1.412767   -6.520147    0.048698
   8 H     1.0000    0     1.008   -2.864419   -8.373851   -0.565733
   9 H     1.0000    0     1.008   -6.620943   -5.849844    0.535322
  10 N     7.0000    0    14.007   -6.788677   -1.285690    2.466983
  11 B     5.0000    0    10.810   -1.734778    1.038722    3.652570
  12 H     1.0000    0     1.008    2.118602    7.698247    1.318708
  13 H     1.0000    0     1.008    5.088906    6.857160    0.026519
  14 H     1.0000    0     1.008    2.624372    4.599042    0.185403
  15 C     6.0000    0    12.011    7.533153    2.479421    1.556429
  16 H     1.0000    0     1.008    8.939537    3.978013    1.369683
  17 H     1.0000    0     1.008    8.528376    0.686776    1.760057
  18 H     1.0000    0     1.008    6.409781    2.402921   -0.163943
  19 C     6.0000    0    12.011    7.412441    2.598886    6.275401
  20 H     1.0000    0     1.008    8.092240    0.656175    6.366501
  21 H     1.0000    0     1.008    9.038392    3.864681    6.324214
  22 H     1.0000    0     1.008    6.241858    2.955450    7.935045
  23 C     6.0000    0    12.011   -0.148752    0.760080    6.755179
  24 C     6.0000    0    12.011    0.384023   -1.647499    7.690649
  25 C     6.0000    0    12.011   -0.280520   -2.011457   10.218755
  26 H     1.0000    0     1.008   -3.430176    2.410650    4.170425
  27 H     1.0000    0     1.008   -0.151229    2.266076    2.455841
  28 C     6.0000    0    12.011    4.370434    5.450301    3.811151
  29 C     6.0000    0    12.011    5.886057    2.928541    3.857012
  30 O     8.0000    0    15.999    2.156947    4.804238    5.278888
  31 O     8.0000    0    15.999    3.904679    1.046168    3.897717
  32 B     5.0000    0    10.810    1.776121    2.233157    4.895343
  33 C     6.0000    0    12.011    5.682801    7.658947    5.077072
  34 H     1.0000    0     1.008    4.499126    9.338785    4.930730
  35 H     1.0000    0     1.008    6.026756    7.282999    7.069033
  36 H     1.0000    0     1.008    7.483030    8.056830    4.150491
  37 C     6.0000    0    12.011    3.506479    6.183868    1.162869
  38 H     1.0000    0     1.008    1.228271   -3.086820    6.512886
  39 C     6.0000    0    12.011   -1.318874    0.147765   11.243557
  40 H     1.0000    0     1.008   -0.029468   -3.752590   11.251469
  41 H     1.0000    0     1.008   -2.002879    0.380334   13.151789
  42 S    16.0000    0    32.060   -1.469368    2.553606    9.173619
  43 C     6.0000    0    12.011   -7.966997    0.226024    0.424846
  44 C     6.0000    0    12.011   -8.201861   -1.926183    4.775597
  45 C     6.0000    0    12.011   -9.905884    0.323703    5.402840
  46 C     6.0000    0    12.011   -6.349557   -2.263625    6.967766
  47 C     6.0000    0    12.011   -9.769595   -4.374438    4.596834
  48 C     6.0000    0    12.011  -11.808729    0.944113    3.311894
  49 H     1.0000    0     1.008   -8.666197    1.940996    5.738923
  50 H     1.0000    0     1.008  -10.887145   -0.055411    7.179980
  51 C     6.0000    0    12.011  -10.849604    0.155859    0.698184
  52 H     1.0000    0     1.008  -12.210798    2.968057    3.344401
  53 H     1.0000    0     1.008  -13.606612   -0.001750    3.677749
  54 C     6.0000    0    12.011   -7.329342   -0.829552   -2.193630
  55 C     6.0000    0    12.011   -7.054661    2.983396    0.485588
  56 H     1.0000    0     1.008  -11.662129    1.375607   -0.755953
  57 H     1.0000    0     1.008  -11.480324   -1.757613    0.255519
  58 H     1.0000    0     1.008   -8.016192   -2.759609   -2.418549
  59 H     1.0000    0     1.008   -5.299476   -0.821519   -2.547859
  60 H     1.0000    0     1.008   -8.233011    0.348654   -3.625976
  61 H     1.0000    0     1.008   -8.007679    4.080355   -0.983230
  62 H     1.0000    0     1.008   -5.025496    3.079396    0.141200
  63 H     1.0000    0     1.008   -7.422377    3.871163    2.306666
  64 H     1.0000    0     1.008  -11.106060   -4.351608    3.032907
  65 H     1.0000    0     1.008  -10.837557   -4.649340    6.343416
  66 H     1.0000    0     1.008   -8.532414   -6.006362    4.363030
  67 H     1.0000    0     1.008   -5.059906   -3.836433    6.629286
  68 H     1.0000    0     1.008   -7.393453   -2.654780    8.705057
  69 H     1.0000    0     1.008   -5.241070   -0.548451    7.233809

--------------------------------
INTERNAL COORDINATES (ANGSTROEM)
--------------------------------
 C      0   0   0     0.000000000000     0.00000000     0.00000000
 C      1   0   0     1.405294629814     0.00000000     0.00000000
 C      2   1   0     1.403611176090   117.52092899     0.00000000
 C      3   2   1     1.383898574755   122.42935954   356.67048772
 C      4   3   2     1.388010039042   119.47884096     0.98708204
 C      5   4   3     1.382991098728   119.17736913     1.40673808
 H      3   2   1     1.084220200856   118.73200555   176.96316004
 H      4   3   2     1.083233758848   120.12049462   180.55883685
 H      5   4   3     1.083024209099   120.64209922   179.96120095
 H      6   5   4     1.082389943011   119.77267361   177.26272348
 N      1   2   3     1.426851377697   121.40745884   184.17510563
 B      2   1   3     1.589424597865   122.65191796   179.31852946
 H     12   2   1     4.254687821701   132.93468178   236.78440043
 H     13  12   2     1.770956460717   109.22544358   315.75051947
 H     13  12   2     1.766632457521    53.28934611   338.96105288
 C     14  13  12     2.773998024231   120.73291590   332.70175299
 H     16  14  13     1.092025839072    71.63352540   220.71443454
 H     16  14  13     1.090350170521   168.70195722   129.91856541
 H     16  14  13     1.088035126555    62.10317366    96.54585167
 C     16  14  13     2.498788688944   104.98787590   311.21425159
 H     20  16  14     1.090226899074    90.68174202   169.97221442
 H     20  16  14     1.090713144010    91.09087915   278.51766313
 H     20  16  14     1.091160753523   145.41041351    45.09675907
 C     12   2   1     1.849798251654   111.58832037   115.17248835
 C     24  12   2     1.395602770405   118.63667882   356.56775060
 C     25  24  12     1.396606994964   114.50671472   226.65442007
 H     12   2   1     1.186199369825   123.02012352   355.37827243
 H     12   2   1     1.234944485453   110.02414776   226.32008634
 C     13  12   2     2.138837180550    68.12065206   262.06164477
 C     16  14  13     1.516008876355    80.52434358   336.18163100
 O     29  13  12     1.446423955520    90.65433967   322.43324770
 O     30  16  14     1.446391842303   108.70940522   108.36050841
 B     31  29  13     1.390295383073   105.68208843   112.62848536
 C     29  13  12     1.515608505340    95.67918690   213.84818279
 H     34  29  13     1.090202548603   109.51906348    24.93757272
 H     34  29  13     1.088041294905   111.33755044   144.68408623
 H     34  29  13     1.091913128173   110.48664610   265.86114036
 C     13  12   2     1.090135020660    74.69022171   306.49167665
 H     25  24  12     1.080808035411   121.48584353    46.16120107
 C     26  25  24     1.378974957805   111.27073568   359.54404924
 H     26  25  24     1.079452920116   124.86692193   179.28416965
 H     40  26  25     1.079742177258   126.57026928   179.57697128
 S     40  26  25     1.681365175385   112.95929268   359.85635718
 C     11   1   2     1.482077891991   118.70494799    93.56253386
 C     11   1   2     1.471932845797   118.22988494   257.57709034
 C     45  11   1     1.529963939632   107.47636086   160.79992479
 C     45  11   1     1.529175939653   109.32047032    44.17123116
 C     45  11   1     1.541323454052   114.58665736   284.01583295
 C     46  45  11     1.531671596973   113.42462933    60.24919691
 H     46  45  11     1.092903230314   106.91242773   298.65231980
 H     46  45  11     1.092828031361   108.89788695   183.60991062
 C     49  46  45     1.531211261238   112.10032217   332.32179607
 H     49  46  45     1.092089662155   109.08149714   209.93869719
 H     49  46  45     1.092323702684   110.26378242    93.83191755
 C     44  11   1     1.531624124332   111.72227821    25.92777504
 C     44  11   1     1.537270361017   111.40454570   266.04187410
 H     52  49  46     1.092529532454   110.17028659   208.48223819
 H     52  49  46     1.091585896771   110.19310247    91.80142971
 H     55  44  11     1.090601908889   111.52154093    60.81142921
 H     55  44  11     1.090400445149   111.78535275   299.46762827
 H     55  44  11     1.091748344641   108.86375274   180.17643897
 H     56  44  11     1.093361100299   110.13370741   182.42230072
 H     56  44  11     1.090327270644   110.48855668    63.06506802
 H     56  44  11     1.089600219023   111.81727898   303.15052931
 H     48  45  11     1.088682444111   112.76676122   303.63635985
 H     48  45  11     1.093062836101   109.77069961   183.22235323
 H     48  45  11     1.090728765757   110.45011900    64.84583045
 H     47  45  11     1.091118373967   111.43598406   297.03660713
 H     47  45  11     1.092325084927   109.65979156   177.44384987
 H     47  45  11     1.089815260589   110.22808978    57.75751105

---------------------------
INTERNAL COORDINATES (A.U.)
---------------------------
 C      0   0   0     0.000000000000     0.00000000     0.00000000
 C      1   0   0     2.655621987819     0.00000000     0.00000000
 C      2   1   0     2.652440721321   117.52092899     0.00000000
 C      3   2   1     2.615189303411   122.42935954   356.67048772
 C      4   3   2     2.622958844922   119.47884096     0.98708204
 C      5   4   3     2.613474422248   119.17736913     1.40673808
 H      3   2   1     2.048879248483   118.73200555   176.96316004
 H      4   3   2     2.047015143242   120.12049462   180.55883685
 H      5   4   3     2.046619151603   120.64209922   179.96120095
 H      6   5   4     2.045420562401   119.77267361   177.26272348
 N      1   2   3     2.696358337656   121.40745884   184.17510563
 B      2   1   3     3.003577200482   122.65191796   179.31852946
 H     12   2   1     8.040194768345   132.93468178   236.78440043
 H     13  12   2     3.346622705853   109.22544358   315.75051947
 H     13  12   2     3.338451524011    53.28934611   338.96105288
 C     14  13  12     5.242096561835   120.73291590   332.70175299
 H     16  14  13     2.063629767012    71.63352540   220.71443454
 H     16  14  13     2.060463212359   168.70195722   129.91856541
 H     16  14  13     2.056088413275    62.10317366    96.54585167
 C     16  14  13     4.722026288643   104.98787590   311.21425159
 H     20  16  14     2.060230263084    90.68174202   169.97221442
 H     20  16  14     2.061149132848    91.09087915   278.51766313
 H     20  16  14     2.061994992241   145.41041351    45.09675907
 C     12   2   1     3.495612098632   111.58832037   115.17248835
 C     24  12   2     2.637307027806   118.63667882   356.56775060
 C     25  24  12     2.639204737200   114.50671472   226.65442007
 H     12   2   1     2.241591949200   123.02012352   355.37827243
 H     12   2   1     2.333706868103   110.02414776   226.32008634
 C     13  12   2     4.041816516288    68.12065206   262.06164477
 C     16  14  13     2.864841592905    80.52434358   336.18163100
 O     29  13  12     2.733345149476    90.65433967   322.43324770
 O     30  16  14     2.733284464291   108.70940522   108.36050841
 B     31  29  13     2.627277519263   105.68208843   112.62848536
 C     29  13  12     2.864085001334    95.67918690   213.84818279
 H     34  29  13     2.060184247363   109.51906348    24.93757272
 H     34  29  13     2.056100069767   111.33755044   144.68408623
 H     34  29  13     2.063416774281   110.48664610   265.86114036
 C     13  12   2     2.060056638045    74.69022171   306.49167665
 H     25  24  12     2.042431190269   121.48584353    46.16120107
 C     26  25  24     2.605885015788   111.27073568   359.54404924
 H     26  25  24     2.039870393480   124.86692193   179.28416965
 H     40  26  25     2.040417010261   126.57026928   179.57697128
 S     40  26  25     3.177319712589   112.95929268   359.85635718
 C     11   1   2     2.800721325003   118.70494799    93.56253386
 C     11   1   2     2.781549966080   118.22988494   257.57709034
 C     45  11   1     2.891212840679   107.47636086   160.79992479
 C     45  11   1     2.889723736526   109.32047032    44.17123116
 C     45  11   1     2.912679211948   114.58665736   284.01583295
 C     46  45  11     2.894439845385   113.42462933    60.24919691
 H     46  45  11     2.065287796171   106.91242773   298.65231980
 H     46  45  11     2.065145690745   108.89788695   183.60991062
 C     49  46  45     2.893569936915   112.10032217   332.32179607
 H     49  46  45     2.063750375159   109.08149714   209.93869719
 H     49  46  45     2.064192647664   110.26378242    93.83191755
 C     44  11   1     2.894350135095   111.72227821    25.92777504
 C     44  11   1     2.905019976117   111.40454570   266.04187410
 H     52  49  46     2.064581609560   110.17028659   208.48223819
 H     52  49  46     2.062798396548   110.19310247    91.80142971
 H     55  44  11     2.060938928933   111.52154093    60.81142921
 H     55  44  11     2.060558217638   111.78535275   299.46762827
 H     55  44  11     2.063105378533   108.86375274   180.17643897
 H     56  44  11     2.066153045047   110.13370741   182.42230072
 H     56  44  11     2.060419937862   110.48855668    63.06506802
 H     56  44  11     2.059046009413   111.81727898   303.15052931
 H     48  45  11     2.057311666177   112.76676122   303.63635985
 H     48  45  11     2.065589407399   109.77069961   183.22235323
 H     48  45  11     2.061178653670   110.45011900    64.84583045
 H     47  45  11     2.061914906487   111.43598406   297.03660713
 H     47  45  11     2.064195259724   109.65979156   177.44384987
 H     47  45  11     2.059452379082   110.22808978    57.75751105

---------------------
BASIS SET INFORMATION
---------------------
There are 6 groups of distinct atoms

 Group   1 Type C   : 10s4p1d contracted to 3s2p1d pattern {631/31/1}
 Group   2 Type H   : 4s1p contracted to 2s1p pattern {31/1}
 Group   3 Type N   : 10s4p1d contracted to 3s2p1d pattern {631/31/1}
 Group   4 Type B   : 10s4p1d contracted to 3s2p1d pattern {631/31/1}
 Group   5 Type O   : 10s4p1d contracted to 3s2p1d pattern {631/31/1}
 Group   6 Type S   : 16s10p1d contracted to 4s3p1d pattern {6631/631/1}

Atom   0C    basis set group =>   1
Atom   1C    basis set group =>   1
Atom   2C    basis set group =>   1
Atom   3C    basis set group =>   1
Atom   4C    basis set group =>   1
Atom   5C    basis set group =>   1
Atom   6H    basis set group =>   2
Atom   7H    basis set group =>   2
Atom   8H    basis set group =>   2
Atom   9H    basis set group =>   2
Atom  10N    basis set group =>   3
Atom  11B    basis set group =>   4
Atom  12H    basis set group =>   2
Atom  13H    basis set group =>   2
Atom  14H    basis set group =>   2
Atom  15C    basis set group =>   1
Atom  16H    basis set group =>   2
Atom  17H    basis set group =>   2
Atom  18H    basis set group =>   2
Atom  19C    basis set group =>   1
Atom  20H    basis set group =>   2
Atom  21H    basis set group =>   2
Atom  22H    basis set group =>   2
Atom  23C    basis set group =>   1
Atom  24C    basis set group =>   1
Atom  25C    basis set group =>   1
Atom  26H    basis set group =>   2
Atom  27H    basis set group =>   2
Atom  28C    basis set group =>   1
Atom  29C    basis set group =>   1
Atom  30O    basis set group =>   5
Atom  31O    basis set group =>   5
Atom  32B    basis set group =>   4
Atom  33C    basis set group =>   1
Atom  34H    basis set group =>   2
Atom  35H    basis set group =>   2
Atom  36H    basis set group =>   2
Atom  37C    basis set group =>   1
Atom  38H    basis set group =>   2
Atom  39C    basis set group =>   1
Atom  40H    basis set group =>   2
Atom  41H    basis set group =>   2
Atom  42S    basis set group =>   6
Atom  43C    basis set group =>   1
Atom  44C    basis set group =>   1
Atom  45C    basis set group =>   1
Atom  46C    basis set group =>   1
Atom  47C    basis set group =>   1
Atom  48C    basis set group =>   1
Atom  49H    basis set group =>   2
Atom  50H    basis set group =>   2
Atom  51C    basis set group =>   1
Atom  52H    basis set group =>   2
Atom  53H    basis set group =>   2
Atom  54C    basis set group =>   1
Atom  55C    basis set group =>   1
Atom  56H    basis set group =>   2
Atom  57H    basis set group =>   2
Atom  58H    basis set group =>   2
Atom  59H    basis set group =>   2
Atom  60H    basis set group =>   2
Atom  61H    basis set group =>   2
Atom  62H    basis set group =>   2
Atom  63H    basis set group =>   2
Atom  64H    basis set group =>   2
Atom  65H    basis set group =>   2
Atom  66H    basis set group =>   2
Atom  67H    basis set group =>   2
Atom  68H    basis set group =>   2
Atom  69H    basis set group =>   2
---------------------------------
AUXILIARY/J BASIS SET INFORMATION
---------------------------------
There are 6 groups of distinct atoms

 Group   1 Type C   : 12s5p4d2f1g contracted to 6s4p3d1f1g pattern {711111/2111/211/2/1}
 Group   2 Type H   : 5s2p1d contracted to 3s1p1d pattern {311/2/1}
 Group   3 Type N   : 12s5p4d2f1g contracted to 6s4p3d1f1g pattern {711111/2111/211/2/1}
 Group   4 Type B   : 12s5p4d2f1g contracted to 6s4p3d1f1g pattern {711111/2111/211/2/1}
 Group   5 Type O   : 12s5p4d2f1g contracted to 6s4p3d1f1g pattern {711111/2111/211/2/1}
 Group   6 Type S   : 14s5p5d2f1g contracted to 8s4p3d1f1g pattern {71111111/2111/311/2/1}

Atom   0C    basis set group =>   1
Atom   1C    basis set group =>   1
Atom   2C    basis set group =>   1
Atom   3C    basis set group =>   1
Atom   4C    basis set group =>   1
Atom   5C    basis set group =>   1
Atom   6H    basis set group =>   2
Atom   7H    basis set group =>   2
Atom   8H    basis set group =>   2
Atom   9H    basis set group =>   2
Atom  10N    basis set group =>   3
Atom  11B    basis set group =>   4
Atom  12H    basis set group =>   2
Atom  13H    basis set group =>   2
Atom  14H    basis set group =>   2
Atom  15C    basis set group =>   1
Atom  16H    basis set group =>   2
Atom  17H    basis set group =>   2
Atom  18H    basis set group =>   2
Atom  19C    basis set group =>   1
Atom  20H    basis set group =>   2
Atom  21H    basis set group =>   2
Atom  22H    basis set group =>   2
Atom  23C    basis set group =>   1
Atom  24C    basis set group =>   1
Atom  25C    basis set group =>   1
Atom  26H    basis set group =>   2
Atom  27H    basis set group =>   2
Atom  28C    basis set group =>   1
Atom  29C    basis set group =>   1
Atom  30O    basis set group =>   5
Atom  31O    basis set group =>   5
Atom  32B    basis set group =>   4
Atom  33C    basis set group =>   1
Atom  34H    basis set group =>   2
Atom  35H    basis set group =>   2
Atom  36H    basis set group =>   2
Atom  37C    basis set group =>   1
Atom  38H    basis set group =>   2
Atom  39C    basis set group =>   1
Atom  40H    basis set group =>   2
Atom  41H    basis set group =>   2
Atom  42S    basis set group =>   6
Atom  43C    basis set group =>   1
Atom  44C    basis set group =>   1
Atom  45C    basis set group =>   1
Atom  46C    basis set group =>   1
Atom  47C    basis set group =>   1
Atom  48C    basis set group =>   1
Atom  49H    basis set group =>   2
Atom  50H    basis set group =>   2
Atom  51C    basis set group =>   1
Atom  52H    basis set group =>   2
Atom  53H    basis set group =>   2
Atom  54C    basis set group =>   1
Atom  55C    basis set group =>   1
Atom  56H    basis set group =>   2
Atom  57H    basis set group =>   2
Atom  58H    basis set group =>   2
Atom  59H    basis set group =>   2
Atom  60H    basis set group =>   2
Atom  61H    basis set group =>   2
Atom  62H    basis set group =>   2
Atom  63H    basis set group =>   2
Atom  64H    basis set group =>   2
Atom  65H    basis set group =>   2
Atom  66H    basis set group =>   2
Atom  67H    basis set group =>   2
Atom  68H    basis set group =>   2
Atom  69H    basis set group =>   2


           ************************************************************
           *        Program running with 10 parallel MPI-processes    *
           *              working on a common directory               *
           ************************************************************
------------------------------------------------------------------------------
                             ORCA STARTUP CALCULATIONS
                           -- RI-GTO INTEGRALS CHOSEN --
------------------------------------------------------------------------------
------------------------------------------------------------------------------
                   ___                                                        
                  /   \      - P O W E R E D   B Y -                         
                 /     \                                                     
                 |  |  |   _    _      __       _____    __    __             
                 |  |  |  | |  | |    /  \     |  _  \  |  |  /  |          
                  \  \/   | |  | |   /    \    | | | |  |  | /  /          
                 / \  \   | |__| |  /  /\  \   | |_| |  |  |/  /          
                |  |  |   |  __  | /  /__\  \  |    /   |      \           
                |  |  |   | |  | | |   __   |  |    \   |  |\   \          
                \     /   | |  | | |  |  |  |  | |\  \  |  | \   \       
                 \___/    |_|  |_| |__|  |__|  |_| \__\ |__|  \__/        
                                                                              
                      - O R C A' S   B I G   F R I E N D -                    
                                      &                                       
                       - I N T E G R A L  F E E D E R -                       
                                                                              
 v1 FN, 2020, v2 2021, v3 2022-2024                                           
------------------------------------------------------------------------------


----------------------
SHARK INTEGRAL PACKAGE
----------------------

Number of atoms                             ...     70
Number of basis functions                   ...    633
Number of shells                            ...    305
Maximum angular momentum                    ...      2
Integral batch strategy                     ... SHARK/LIBINT Hybrid
RI-J (if used) integral strategy            ... SPLIT-RIJ (Revised 2003 algorithm where possible)
Printlevel                                  ...      1
Contraction scheme used                     ... SEGMENTED contraction
Prescreening option                         ... SCHWARTZ
   Thresh                                   ... 2.500e-11
   Tcut                                     ... 2.500e-12
   Tpresel                                  ... 2.500e-12 
Coulomb Range Separation                    ... NOT USED
Exchange Range Separation                   ... Long Range
   Mu parameter                             ... 2.500e-01
   Scaling (regular/separated)              ... 1.957e-01 8.043e-01
Robust (split-)RI terms used:
  metric    (central integrals)             ... YES
  density   (r.h.s.  integrals)             ... YES
  potential (l.h.s.  integrals)             ... YES
Multipole approximations                    ... NOT USED
Finite Nucleus Model                        ... NOT USED
CABS basis                                  ... NOT available
Auxiliary Coulomb fitting basis             ... AVAILABLE
   # of basis functions in Aux-J            ...   1950
   # of shells in Aux-J                     ...    662
   Maximum angular momentum in Aux-J        ...      4
Auxiliary J/K fitting basis                 ... NOT available
Auxiliary Correlation fitting basis         ... NOT available
Auxiliary 'external' fitting basis          ... NOT available

Checking pre-screening integrals            ... done (  0.0 sec) Dimension = 305
   => SHARK Basis and OBASIS are compatible. Storing Pre-screening
Shell pair information
Shell pair cut-off parameter TPreSel        ...   2.5e-12
Total number of shell pairs                 ...     46665
Shell pairs after pre-screening             ...     29050
Total number of primitive shell pairs       ...    226926
Primitive shell pairs kept                  ...     78269
          la=0 lb=0:   9408 shell pairs
          la=1 lb=0:  11055 shell pairs
          la=1 lb=1:   3337 shell pairs
          la=2 lb=0:   3130 shell pairs
          la=2 lb=1:   1852 shell pairs
          la=2 lb=2:    268 shell pairs

Checking whether 4 symmetric matrices of dimension 633 fit in memory
:Max Core in MB      =   3584.00
 MB in use           =     33.06
 MB left             =   3550.94
 MB needed           =      6.12
 Data fit in memory  = YES
Calculating RI/J V-Matrix + Cholesky decomp.... done (  0.1 sec)
Calculating Nuclear repulsion               ... done (  0.0 sec) ENN=   3579.189024343984 Eh

Diagonalization of the overlap matrix:
Smallest eigenvalue                        ... 3.961e-04
Time for diagonalization                   ...    0.032 sec
Threshold for overlap eigenvalues          ... 1.000e-07
Number of eigenvalues below threshold      ... 0
Time for construction of square roots      ...    0.006 sec
Total time needed                          ...    0.041 sec

-------------------
DFT GRID GENERATION
-------------------

General Integration Accuracy     IntAcc      ... 4.388
Radial Grid Type                 RadialGrid  ... OptM3 with GC (2021)
Angular Grid (max. ang.)         AngularGrid ... 4 (Lebedev-302)
Angular grid pruning method      GridPruning ... 4 (adaptive)
Weight generation scheme         WeightScheme... mBecke (2022)
Basis function cutoff            BFCut       ... 1.0000e-11
Integration weight cutoff        WCut        ... 1.0000e-14
Partially contracted basis set               ... off
Rotationally invariant grid construction     ... off
Angular grids for H and He will be reduced by one unit

Total number of grid points                  ...   305804
Total number of batches                      ...     4815
Average number of points per batch           ...       63
Average number of grid points per atom       ...     4369

--------------------
COSX GRID GENERATION
--------------------

GRIDX 1
-------
General Integration Accuracy     IntAcc      ... 3.816
Radial Grid Type                 RadialGrid  ... OptM3 with GC (2021)
Angular Grid (max. ang.)         AngularGrid ... 1 (Lebedev-50)
Angular grid pruning method      GridPruning ... 4 (adaptive)
Weight generation scheme         WeightScheme... mBecke (2022)
Basis function cutoff            BFCut       ... 1.0000e-11
Integration weight cutoff        WCut        ... 1.0000e-14
Partially contracted basis set               ... on
Rotationally invariant grid construction     ... off
Angular grids for H and He will be reduced by one unit

Total number of grid points                  ...    39825
Total number of batches                      ...      348
Average number of points per batch           ...      114
Average number of grid points per atom       ...      569
UseSFitting                                  ... on

GRIDX 2
-------
General Integration Accuracy     IntAcc      ... 4.020
Radial Grid Type                 RadialGrid  ... OptM3 with GC (2021)
Angular Grid (max. ang.)         AngularGrid ... 2 (Lebedev-110)
Angular grid pruning method      GridPruning ... 4 (adaptive)
Weight generation scheme         WeightScheme... mBecke (2022)
Basis function cutoff            BFCut       ... 1.0000e-11
Integration weight cutoff        WCut        ... 1.0000e-14
Partially contracted basis set               ... on
Rotationally invariant grid construction     ... off
Angular grids for H and He will be reduced by one unit

Total number of grid points                  ...    80697
Total number of batches                      ...      673
Average number of points per batch           ...      119
Average number of grid points per atom       ...     1153
UseSFitting                                  ... on

GRIDX 3
-------
General Integration Accuracy     IntAcc      ... 4.338
Radial Grid Type                 RadialGrid  ... OptM3 with GC (2021)
Angular Grid (max. ang.)         AngularGrid ... 3 (Lebedev-194)
Angular grid pruning method      GridPruning ... 4 (adaptive)
Weight generation scheme         WeightScheme... mBecke (2022)
Basis function cutoff            BFCut       ... 1.0000e-11
Integration weight cutoff        WCut        ... 1.0000e-14
Partially contracted basis set               ... on
Rotationally invariant grid construction     ... off
Angular grids for H and He will be reduced by one unit

Total number of grid points                  ...   175168
Total number of batches                      ...     1403
Average number of points per batch           ...      124
Average number of grid points per atom       ...     2502
UseSFitting                                  ... on
Grids setup in   1.9 sec
Initializing property integral containers    ... done (  0.0 sec)

SHARK setup successfully completed in   2.2 seconds

Maximum memory used throughout the entire STARTUP-calculation: 90.7 MB


           ************************************************************
           *        Program running with 10 parallel MPI-processes    *
           *              working on a common directory               *
           ************************************************************
-------------------------------------------------------------------------------
                                 ORCA GUESS
                   Start orbitals & Density for SCF / CASSCF
-------------------------------------------------------------------------------

------------
SCF SETTINGS
------------
Hamiltonian:
 Density Functional     Method          .... DFT(GTOs)
 Exchange Functional    Exchange        .... WB97X-D3
 Correlation Functional Correlation     .... WB97X-D3
 Gradients option       PostSCFGGA      .... off
 Hybrid DFT is turned on
   Fraction HF Exchange ScalHFX         ....  0.195728
   Scaling of DF-GGA-X  ScalDFX         ....  0.000000
   Scaling of DF-GGA-C  ScalDFC         ....  1.000000
   Scaling of DF-LDA-C  ScalLDAC        ....  1.000000
   Perturbative correction              ....  0.000000
 Long-range corrected/Screened/Range-Separated Hybrid DFT is turned on
   Amount of maximum screened exact exchange              ....  0.804272
   Range separation parameter mu (erf(mu*r12)/r12)        ....  0.250000
 RI-approximation to the Coulomb term is turned on
   Number of AuxJ basis functions       .... 1950
   RIJ-COSX (HFX calculated with COS-X)).... on


General Settings:
 Integral files         IntName         .... input
 Hartree-Fock type      HFTyp           .... RHF
 Total Charge           Charge          ....    0
 Multiplicity           Mult            ....    1
 Number of Electrons    NEL             ....  238
 Basis Dimension        Dim             ....  633
 Nuclear Repulsion      ENuc            ....   3579.1890243440 Eh

Convergence Acceleration:
 AO-DIIS                CNVDIIS         .... on
   Start iteration      DIISMaxIt       ....    12
   Startup error        DIISStart       ....  0.200000
   # of expansion vecs  DIISMaxEq       ....     5
   Bias factor          DIISBfac        ....   1.050
   Max. coefficient     DIISMaxC        ....  10.000
 MO-DIIS                CNVKDIIS        .... off
 Trust-Rad. Augm. Hess. CNVTRAH         .... auto
   Auto Start mean grad. ratio tolernc. ....  1.125000
   Auto Start start iteration           ....    50
   Auto Start num. interpolation iter.  ....    10
   Max. Number of Micro iterations      ....    24
   Max. Number of Macro iterations      .... Maxiter - #DIIS iter
   Number of Davidson start vectors     ....     2
   Converg. threshold    (grad. norm)   ....   1.000e-05
   Grad. Scal. Fac. for Micro threshold ....   0.100
   Minimum threshold for Micro iter.    ....   1.000e-02
   NR start threshold (gradient norm)   ....   1.000e-04
   Initial trust radius                 ....   0.400
   Minimum AH scaling param. (alpha)    ....   1.000
   Maximum AH scaling param. (alpha)    .... 1000.000
   Quad. conv. algorithm                .... NR
   White noise on init. David. guess    .... on
   Maximum white noise                  ....   0.010
   Pseudo random numbers                .... off
   Inactive MOs                         .... canonical
   Orbital update algorithm             .... Taylor
   Preconditioner                       .... Diag
   Full preconditioner red. dimension   ....   250
 SOSCF                 CNVSOSCF           .... on
   Start iteration     SOSCFMaxIt         ....   150
   Startup grad/error  SOSCFStart         ....  0.003300
   Hessian update      SOSCFHessUp        .... L-BFGS
   Autom. constraints  SOSCFAutoConstrain .... off
 Level Shifting         CNVShift        .... on
   Level shift para.    LevelShift      ....    0.2500
   Turn off err/grad.   ShiftErr        ....    0.0010
 Zerner damping         CNVZerner       .... off
 Static damping         CNVDamp         .... on
   Fraction old density DampFac         ....    0.7000
   Max. Damping (<1)    DampMax         ....    0.9800
   Min. Damping (>=0)   DampMin         ....    0.0000
   Turn off err/grad.   DampErr         ....    0.1000

SCF Procedure:
 Maximum # iterations   MaxIter         ....   125
 SCF integral mode      SCFMode         .... Direct
   Integral package                     .... SHARK and LIBINT hybrid scheme
 Reset frequency        DirectResetFreq ....    20
 Integral Threshold     Thresh          ....  2.500e-11 Eh
 Primitive CutOff       TCut            ....  2.500e-12 Eh

Convergence Tolerance:
 Convergence Check Mode ConvCheckMode   .... Total+1el-Energy
 Convergence forced     ConvForced      .... 0
 Energy Change          TolE            ....  1.000e-08 Eh
 1-El. energy change                    ....  1.000e-05 Eh
 Orbital Gradient       TolG            ....  1.000e-05
 Orbital Rotation angle TolX            ....  1.000e-05
 DIIS Error             TolErr          ....  5.000e-07

------------------------------
INITIAL GUESS: MODEL POTENTIAL
------------------------------
Loading Hartree-Fock densities                     ... done
Calculating cut-offs                               ... done
Initializing the effective Hamiltonian             ... done
Setting up the integral package (SHARK)            ... done
Starting the Coulomb interaction                   ... done (   0.2 sec)
Making the grid                                    ... done (   0.2 sec)
Mapping shells                                     ... done
Starting the XC term evaluation                    ... done (   0.1 sec)
  promolecular density results
     # of electrons  =    237.987598397
     EX              =   -194.969582158
     EC              =     -8.077881012
     EX+EC           =   -203.047463170
Transforming the Hamiltonian                       ... done (   0.0 sec)
Diagonalizing the Hamiltonian                      ... done (   0.0 sec)
Back transforming the eigenvectors                 ... done (   0.0 sec)
Now organizing SCF variables                       ... done
                      ------------------
                      INITIAL GUESS DONE (   0.6 sec)
                      ------------------
             **** ENERGY FILE WAS UPDATED (input.en.tmp) ****
Finished Guess after   0.8 sec
Maximum memory used throughout the entire GUESS-calculation: 44.0 MB


           ************************************************************
           *        Program running with 10 parallel MPI-processes    *
           *              working on a common directory               *
           ************************************************************

-------------------------------------------------------------------------------------------
                                      ORCA LEAN-SCF
                              memory conserving SCF solver
-------------------------------------------------------------------------------------------

----------------------------------------D-I-I-S--------------------------------------------
Iteration    Energy (Eh)           Delta-E    RMSDP     MaxDP     DIISErr   Damp  Time(sec)
-------------------------------------------------------------------------------------------
               ***  Starting incremental Fock matrix formation  ***
    1    -1628.1209218137150856     0.00e+00  4.14e-03  6.88e-02  1.89e-01  0.700   7.7
    2    -1628.4736916266415392    -3.53e-01  3.15e-03  5.05e-02  9.99e-02  0.700   3.5
                               ***Turning on AO-DIIS***
    3    -1628.6553697118229138    -1.82e-01  1.56e-03  2.07e-02  5.17e-02  0.700   3.5
    4    -1628.7629872235042967    -1.08e-01  3.34e-03  6.22e-02  3.19e-02  0.000   3.4
    5    -1628.9922139072646132    -2.29e-01  3.42e-04  7.31e-03  5.07e-03  0.000   3.7
                              *** Initializing SOSCF ***
---------------------------------------S-O-S-C-F--------------------------------------
Iteration    Energy (Eh)           Delta-E    RMSDP     MaxDP     MaxGrad    Time(sec)
--------------------------------------------------------------------------------------
    6    -1628.9929442016104986    -7.30e-04  1.98e-04  4.55e-03  2.73e-03     3.2
               *** Restarting incremental Fock matrix formation ***
    7    -1628.9931018671181846    -1.58e-04  1.53e-04  4.08e-03  2.01e-03     8.7
    8    -1628.9932195247242817    -1.18e-04  2.20e-04  4.87e-03  8.61e-04     5.5
    9    -1628.9932508922934176    -3.14e-05  7.25e-05  1.13e-03  5.14e-04     5.7
   10    -1628.9932661132174871    -1.52e-05  1.41e-05  3.52e-04  7.76e-05     5.1
   11    -1628.9932664361972456    -3.23e-07  5.55e-06  1.10e-04  5.46e-05     4.1
   12    -1628.9932666025283652    -1.66e-07  2.16e-06  4.49e-05  1.12e-05     3.4
   13    -1628.9932665870624078     1.55e-08  8.12e-07  1.38e-05  3.41e-06     2.9
   14    -1628.9932666038944262    -1.68e-08  2.88e-07  5.16e-06  1.86e-06     2.4
                  *** Gradient check signals convergence ***

               *****************************************************
               *                     SUCCESS                       *
               *           SCF CONVERGED AFTER  14 CYCLES          *
               *****************************************************

Recomputing exchange energy using gridx3       ... done (   16.635 sec)
Old exchange energy                            :    -64.585181957 Eh
New exchange energy                            :    -64.585220309 Eh
Exchange energy change after final integration :     -0.000038352 Eh
Total energy after final integration           :  -1628.993304946 Eh
             **** ENERGY FILE WAS UPDATED (input.en.tmp) ****

----------------
TOTAL SCF ENERGY
----------------

Total Energy       :      -1628.99330494614219 Eh          -44327.16138 eV

Components:
Nuclear Repulsion  :       3579.18902434398433 Eh           97394.68480 eV
Electronic Energy  :      -5208.18229093808077 Eh         -141721.84514 eV
One Electron Energy:      -9343.58295966140031 Eh         -254251.81825 eV
Two Electron Energy:       4135.40066872331954 Eh          112529.97311 eV

Virial components:
Potential Energy   :      -3249.07402839590213 Eh          -88411.79908 eV
Kinetic Energy     :       1620.08072344975972 Eh           44084.63770 eV
Virial Ratio       :          2.00550131938945

DFT components:
N(Alpha)           :      119.000044432224 electrons
N(Beta)            :      119.000044432224 electrons
N(Total)           :      238.000088864449 electrons
E(XC)              :     -143.854812188899 Eh       

---------------
SCF CONVERGENCE
---------------

  Last Energy change         ...    1.6832e-08  Tolerance :   1.0000e-08
  Last MAX-Density change    ...    5.1577e-06  Tolerance :   1.0000e-07
  Last RMS-Density change    ...    2.8840e-07  Tolerance :   5.0000e-09
  Last DIIS Error            ...    2.7329e-03  Tolerance :   5.0000e-07
  Last Orbital Gradient      ...    1.8584e-06  Tolerance :   1.0000e-05
  Last Orbital Rotation      ...    7.1811e-06  Tolerance :   1.0000e-05


----------------
ORBITAL ENERGIES
----------------

  NO   OCC          E(Eh)            E(eV) 
   0   2.0000     -88.999133     -2421.7895 
   1   2.0000     -19.237985      -523.4922 
   2   2.0000     -19.236514      -523.4522 
   3   2.0000     -14.391852      -391.6222 
   4   2.0000     -10.347312      -281.5647 
   5   2.0000     -10.344122      -281.4779 
   6   2.0000     -10.342941      -281.4457 
   7   2.0000     -10.324780      -280.9516 
   8   2.0000     -10.313931      -280.6563 
   9   2.0000     -10.309854      -280.5454 
  10   2.0000     -10.305633      -280.4305 
  11   2.0000     -10.305069      -280.4152 
  12   2.0000     -10.294551      -280.1290 
  13   2.0000     -10.274813      -279.5919 
  14   2.0000     -10.274196      -279.5751 
  15   2.0000     -10.272234      -279.5217 
  16   2.0000     -10.270153      -279.4651 
  17   2.0000     -10.269829      -279.4562 
  18   2.0000     -10.268413      -279.4177 
  19   2.0000     -10.265692      -279.3437 
  20   2.0000     -10.263955      -279.2964 
  21   2.0000     -10.262773      -279.2642 
  22   2.0000     -10.261861      -279.2394 
  23   2.0000     -10.260887      -279.2129 
  24   2.0000     -10.252711      -278.9904 
  25   2.0000     -10.251366      -278.9539 
  26   2.0000     -10.251296      -278.9519 
  27   2.0000     -10.250701      -278.9358 
  28   2.0000     -10.245259      -278.7877 
  29   2.0000      -8.095100      -220.2789 
  30   2.0000      -6.900476      -187.7715 
  31   2.0000      -6.813211      -185.3969 
  32   2.0000      -6.048918      -164.5994 
  33   2.0000      -6.044285      -164.4734 
  34   2.0000      -6.042721      -164.4308 
  35   2.0000      -1.168967       -31.8092 
  36   2.0000      -1.096573       -29.8393 
  37   2.0000      -1.028541       -27.9880 
  38   2.0000      -1.024246       -27.8712 
  39   2.0000      -0.948863       -25.8199 
  40   2.0000      -0.923938       -25.1416 
  41   2.0000      -0.909312       -24.7436 
  42   2.0000      -0.898549       -24.4508 
  43   2.0000      -0.873870       -23.7792 
  44   2.0000      -0.866001       -23.5651 
  45   2.0000      -0.864355       -23.5203 
  46   2.0000      -0.838756       -22.8237 
  47   2.0000      -0.837560       -22.7912 
  48   2.0000      -0.820744       -22.3336 
  49   2.0000      -0.810777       -22.0624 
  50   2.0000      -0.791348       -21.5337 
  51   2.0000      -0.788291       -21.4505 
  52   2.0000      -0.776837       -21.1388 
  53   2.0000      -0.772533       -21.0217 
  54   2.0000      -0.738921       -20.1071 
  55   2.0000      -0.714959       -19.4550 
  56   2.0000      -0.707132       -19.2420 
  57   2.0000      -0.688990       -18.7484 
  58   2.0000      -0.684189       -18.6177 
  59   2.0000      -0.671954       -18.2848 
  60   2.0000      -0.666631       -18.1400 
  61   2.0000      -0.650939       -17.7130 
  62   2.0000      -0.647648       -17.6234 
  63   2.0000      -0.628516       -17.1028 
  64   2.0000      -0.616803       -16.7841 
  65   2.0000      -0.596312       -16.2265 
  66   2.0000      -0.576957       -15.6998 
  67   2.0000      -0.575746       -15.6668 
  68   2.0000      -0.572063       -15.5666 
  69   2.0000      -0.566603       -15.4180 
  70   2.0000      -0.557432       -15.1685 
  71   2.0000      -0.548983       -14.9386 
  72   2.0000      -0.544143       -14.8069 
  73   2.0000      -0.540088       -14.6966 
  74   2.0000      -0.538753       -14.6602 
  75   2.0000      -0.524538       -14.2734 
  76   2.0000      -0.520924       -14.1751 
  77   2.0000      -0.516540       -14.0558 
  78   2.0000      -0.513661       -13.9774 
  79   2.0000      -0.504562       -13.7298 
  80   2.0000      -0.502204       -13.6657 
  81   2.0000      -0.498113       -13.5543 
  82   2.0000      -0.496706       -13.5161 
  83   2.0000      -0.491839       -13.3836 
  84   2.0000      -0.490099       -13.3363 
  85   2.0000      -0.486094       -13.2273 
  86   2.0000      -0.482284       -13.1236 
  87   2.0000      -0.479629       -13.0514 
  88   2.0000      -0.471281       -12.8242 
  89   2.0000      -0.469679       -12.7806 
  90   2.0000      -0.467607       -12.7242 
  91   2.0000      -0.463545       -12.6137 
  92   2.0000      -0.461692       -12.5633 
  93   2.0000      -0.460912       -12.5421 
  94   2.0000      -0.457261       -12.4427 
  95   2.0000      -0.451836       -12.2951 
  96   2.0000      -0.447978       -12.1901 
  97   2.0000      -0.445703       -12.1282 
  98   2.0000      -0.442865       -12.0510 
  99   2.0000      -0.439737       -11.9659 
 100   2.0000      -0.437108       -11.8943 
 101   2.0000      -0.430852       -11.7241 
 102   2.0000      -0.429158       -11.6780 
 103   2.0000      -0.423174       -11.5152 
 104   2.0000      -0.420158       -11.4331 
 105   2.0000      -0.411738       -11.2040 
 106   2.0000      -0.399503       -10.8710 
 107   2.0000      -0.397230       -10.8092 
 108   2.0000      -0.395535       -10.7631 
 109   2.0000      -0.387382       -10.5412 
 110   2.0000      -0.383632       -10.4392 
 111   2.0000      -0.378993       -10.3129 
 112   2.0000      -0.366571        -9.9749 
 113   2.0000      -0.357295        -9.7225 
 114   2.0000      -0.349220        -9.5028 
 115   2.0000      -0.332626        -9.0512 
 116   2.0000      -0.310170        -8.4402 
 117   2.0000      -0.302351        -8.2274 
 118   2.0000      -0.261285        -7.1099 
 119   0.0000      -0.001889        -0.0514 
 120   0.0000       0.086689         2.3589 
 121   0.0000       0.093354         2.5403 
 122   0.0000       0.111301         3.0287 
 123   0.0000       0.117964         3.2100 
 124   0.0000       0.157060         4.2738 
 125   0.0000       0.160975         4.3804 
 126   0.0000       0.170116         4.6291 
 127   0.0000       0.175040         4.7631 
 128   0.0000       0.191578         5.2131 
 129   0.0000       0.198621         5.4048 
*Only the first 10 virtual orbitals were printed.

                    ********************************
                    * MULLIKEN POPULATION ANALYSIS *
                    ********************************

-----------------------
MULLIKEN ATOMIC CHARGES
-----------------------
   0 C :    0.124051
   1 C :    0.084625
   2 C :   -0.204082
   3 C :   -0.112038
   4 C :   -0.142074
   5 C :   -0.094815
   6 H :    0.126652
   7 H :    0.108628
   8 H :    0.111298
   9 H :    0.103657
  10 N :   -0.503007
  11 B :    0.012012
  12 H :    0.135614
  13 H :    0.114016
  14 H :    0.136941
  15 C :   -0.354066
  16 H :    0.114010
  17 H :    0.128914
  18 H :    0.133864
  19 C :   -0.353041
  20 H :    0.128327
  21 H :    0.113859
  22 H :    0.130387
  23 C :   -0.517133
  24 C :    0.003633
  25 C :   -0.103598
  26 H :   -0.035811
  27 H :   -0.047152
  28 C :    0.214357
  29 C :    0.229346
  30 O :   -0.517479
  31 O :   -0.524155
  32 B :    0.708615
  33 C :   -0.354882
  34 H :    0.132160
  35 H :    0.130364
  36 H :    0.113079
  37 C :   -0.356035
  38 H :    0.166133
  39 C :   -0.299630
  40 H :    0.148549
  41 H :    0.181008
  42 S :    0.367027
  43 C :    0.145109
  44 C :    0.146916
  45 C :   -0.197498
  46 C :   -0.322242
  47 C :   -0.328106
  48 C :   -0.232972
  49 H :    0.114868
  50 H :    0.098766
  51 C :   -0.200601
  52 H :    0.114391
  53 H :    0.111247
  54 C :   -0.335976
  55 C :   -0.302527
  56 H :    0.104022
  57 H :    0.102685
  58 H :    0.106066
  59 H :    0.128210
  60 H :    0.104905
  61 H :    0.091027
  62 H :    0.120079
  63 H :    0.108117
  64 H :    0.104322
  65 H :    0.100598
  66 H :    0.111751
  67 H :    0.114645
  68 H :    0.096616
  69 H :    0.113453
Sum of atomic charges:   -0.0000000

--------------------------------
MULLIKEN REDUCED ORBITAL CHARGES
--------------------------------
  0 C s       :     3.122424  s :     3.122424
      pz      :     0.958248  p :     2.693351
      px      :     0.831247
      py      :     0.903856
      dz2     :     0.005412  d :     0.060173
      dxz     :     0.008546
      dyz     :     0.007507
      dx2y2   :     0.021803
      dxy     :     0.016905

  1 C s       :     3.208210  s :     3.208210
      pz      :     0.934335  p :     2.674737
      px      :     0.840552
      py      :     0.899850
      dz2     :     0.003606  d :     0.032427
      dxz     :     0.006943
      dyz     :     0.003304
      dx2y2   :     0.007984
      dxy     :     0.010590

  2 C s       :     3.194413  s :     3.194413
      pz      :     0.979800  p :     2.973619
      px      :     1.030615
      py      :     0.963204
      dz2     :     0.004330  d :     0.036051
      dxz     :     0.004088
      dyz     :     0.005683
      dx2y2   :     0.011581
      dxy     :     0.010368

  3 C s       :     3.155272  s :     3.155272
      pz      :     0.995002  p :     2.921142
      px      :     0.961255
      py      :     0.964884
      dz2     :     0.003776  d :     0.035624
      dxz     :     0.005398
      dyz     :     0.004944
      dx2y2   :     0.009792
      dxy     :     0.011715

  4 C s       :     3.165149  s :     3.165149
      pz      :     0.996586  p :     2.941260
      px      :     0.936238
      py      :     1.008435
      dz2     :     0.002787  d :     0.035666
      dxz     :     0.007287
      dyz     :     0.004021
      dx2y2   :     0.011706
      dxy     :     0.009865

  5 C s       :     3.162621  s :     3.162621
      pz      :     0.983069  p :     2.897630
      px      :     0.962568
      py      :     0.951994
      dz2     :     0.004236  d :     0.034563
      dxz     :     0.004376
      dyz     :     0.005353
      dx2y2   :     0.010687
      dxy     :     0.009912

  6 H s       :     0.860227  s :     0.860227
      pz      :     0.002647  p :     0.013121
      px      :     0.007234
      py      :     0.003239

  7 H s       :     0.879112  s :     0.879112
      pz      :     0.002979  p :     0.012260
      px      :     0.005784
      py      :     0.003497

  8 H s       :     0.876402  s :     0.876402
      pz      :     0.003480  p :     0.012300
      px      :     0.001930
      py      :     0.006890

  9 H s       :     0.883771  s :     0.883771
      pz      :     0.002765  p :     0.012573
      px      :     0.007157
      py      :     0.002651

 10 N s       :     3.540022  s :     3.540022
      pz      :     1.194339  p :     3.928976
      px      :     1.231398
      py      :     1.503239
      dz2     :     0.007457  d :     0.034008
      dxz     :     0.009043
      dyz     :     0.005934
      dx2y2   :     0.004727
      dxy     :     0.006847

 11 B s       :     2.899700  s :     2.899700
      pz      :     0.495568  p :     2.036981
      px      :     0.720708
      py      :     0.820705
      dz2     :     0.007545  d :     0.051307
      dxz     :     0.012452
      dyz     :     0.008980
      dx2y2   :     0.008640
      dxy     :     0.013690

 12 H s       :     0.852876  s :     0.852876
      pz      :     0.002162  p :     0.011510
      px      :     0.004557
      py      :     0.004792

 13 H s       :     0.874317  s :     0.874317
      pz      :     0.003728  p :     0.011667
      px      :     0.005095
      py      :     0.002844

 14 H s       :     0.851167  s :     0.851167
      pz      :     0.003315  p :     0.011892
      px      :     0.003282
      py      :     0.005295

 15 C s       :     3.237931  s :     3.237931
      pz      :     1.003599  p :     3.085711
      px      :     1.025763
      py      :     1.056348
      dz2     :     0.008538  d :     0.030425
      dxz     :     0.008364
      dyz     :     0.001491
      dx2y2   :     0.002465
      dxy     :     0.009567

 16 H s       :     0.874343  s :     0.874343
      pz      :     0.002270  p :     0.011647
      px      :     0.004578
      py      :     0.004799

 17 H s       :     0.859483  s :     0.859483
      pz      :     0.002184  p :     0.011603
      px      :     0.003423
      py      :     0.005997

 18 H s       :     0.854413  s :     0.854413
      pz      :     0.005607  p :     0.011723
      px      :     0.003787
      py      :     0.002329

 19 C s       :     3.236985  s :     3.236985
      pz      :     0.994399  p :     3.085656
      px      :     1.026173
      py      :     1.065084
      dz2     :     0.008409  d :     0.030401
      dxz     :     0.008106
      dyz     :     0.001756
      dx2y2   :     0.004286
      dxy     :     0.007843

 20 H s       :     0.860171  s :     0.860171
      pz      :     0.002157  p :     0.011501
      px      :     0.002736
      py      :     0.006608

 21 H s       :     0.874498  s :     0.874498
      pz      :     0.002169  p :     0.011642
      px      :     0.005302
      py      :     0.004171

 22 H s       :     0.857939  s :     0.857939
      pz      :     0.005312  p :     0.011674
      px      :     0.003901
      py      :     0.002461

 23 C s       :     3.319391  s :     3.319391
      pz      :     1.021074  p :     3.164591
      px      :     1.157129
      py      :     0.986388
      dz2     :     0.005268  d :     0.033151
      dxz     :     0.004489
      dyz     :     0.011042
      dx2y2   :     0.005956
      dxy     :     0.006397

 24 C s       :     3.170022  s :     3.170022
      pz      :     0.951634  p :     2.788234
      px      :     0.875050
      py      :     0.961550
      dz2     :     0.008975  d :     0.038111
      dxz     :     0.007177
      dyz     :     0.010907
      dx2y2   :     0.004752
      dxy     :     0.006299

 25 C s       :     3.144490  s :     3.144490
      pz      :     0.953628  p :     2.923976
      px      :     1.016456
      py      :     0.953891
      dz2     :     0.008476  d :     0.035133
      dxz     :     0.004853
      dyz     :     0.011242
      dx2y2   :     0.005736
      dxy     :     0.004826

 26 H s       :     1.028903  s :     1.028903
      pz      :     0.000979  p :     0.006908
      px      :     0.003571
      py      :     0.002359

 27 H s       :     1.038760  s :     1.038760
      pz      :     0.003873  p :     0.008392
      px      :     0.002219
      py      :     0.002300

 28 C s       :     3.141162  s :     3.141162
      pz      :     0.866486  p :     2.571961
      px      :     0.763803
      py      :     0.941672
      dz2     :     0.015700  d :     0.072521
      dxz     :     0.017000
      dyz     :     0.010989
      dx2y2   :     0.012266
      dxy     :     0.016567

 29 C s       :     3.134166  s :     3.134166
      pz      :     0.951272  p :     2.564001
      px      :     0.804461
      py      :     0.808268
      dz2     :     0.014332  d :     0.072488
      dxz     :     0.017137
      dyz     :     0.008366
      dx2y2   :     0.012325
      dxy     :     0.020328

 30 O s       :     3.849905  s :     3.849905
      pz      :     1.659567  p :     4.643859
      px      :     1.496428
      py      :     1.487864
      dz2     :     0.003460  d :     0.023716
      dxz     :     0.005795
      dyz     :     0.004018
      dx2y2   :     0.006813
      dxy     :     0.003629

 31 O s       :     3.855373  s :     3.855373
      pz      :     1.742989  p :     4.645736
      px      :     1.328814
      py      :     1.573934
      dz2     :     0.003248  d :     0.023046
      dxz     :     0.003331
      dyz     :     0.003702
      dx2y2   :     0.004139
      dxy     :     0.008625

 32 B s       :     2.614950  s :     2.614950
      pz      :     0.501909  p :     1.525350
      px      :     0.483315
      py      :     0.540126
      dz2     :     0.018308  d :     0.151084
      dxz     :     0.030147
      dyz     :     0.025994
      dx2y2   :     0.038770
      dxy     :     0.037866

 33 C s       :     3.238140  s :     3.238140
      pz      :     1.047533  p :     3.086306
      px      :     1.029931
      py      :     1.008841
      dz2     :     0.008587  d :     0.030436
      dxz     :     0.005309
      dyz     :     0.003586
      dx2y2   :     0.005351
      dxy     :     0.007603

 34 H s       :     0.856236  s :     0.856236
      pz      :     0.002262  p :     0.011604
      px      :     0.003899
      py      :     0.005444

[...]
Pressure            ...     1.00 atm
Total Mass          ...   439.27 AMU
Quasi RRHO          ...     True
Cut-Off Frequency   ...     1.00 cm^-1

Throughout the following assumptions are being made:
  (1) The electronic state is orbitally nondegenerate
  (2) There are no thermally accessible electronically excited states
  (3) Hindered rotations indicated by low frequency modes are not
      treated as such but are treated as vibrations and this may
      cause some error
  (4) All equations used are the standard statistical mechanics
      equations for an ideal gas
  (5) All vibrations are strictly harmonic

freq.      16.03  E(vib)   ...       0.57 
freq.      52.38  E(vib)   ...       0.52 
freq.      60.03  E(vib)   ...       0.51 
freq.      69.48  E(vib)   ...       0.50 
freq.      77.17  E(vib)   ...       0.49 
freq.      91.71  E(vib)   ...       0.47 
freq.      92.52  E(vib)   ...       0.47 
freq.     114.82  E(vib)   ...       0.44 
freq.     127.80  E(vib)   ...       0.43 
freq.     133.15  E(vib)   ...       0.42 
freq.     149.23  E(vib)   ...       0.40 
freq.     170.09  E(vib)   ...       0.38 
freq.     171.48  E(vib)   ...       0.38 
freq.     182.48  E(vib)   ...       0.37 
freq.     191.41  E(vib)   ...       0.36 
freq.     194.84  E(vib)   ...       0.36 
freq.     216.75  E(vib)   ...       0.34 
freq.     236.58  E(vib)   ...       0.32 
freq.     239.30  E(vib)   ...       0.31 
freq.     250.38  E(vib)   ...       0.30 
freq.     258.15  E(vib)   ...       0.30 
freq.     270.13  E(vib)   ...       0.29 
freq.     278.05  E(vib)   ...       0.28 
freq.     290.55  E(vib)   ...       0.27 
freq.     291.28  E(vib)   ...       0.27 
freq.     300.16  E(vib)   ...       0.26 
freq.     302.00  E(vib)   ...       0.26 
freq.     307.55  E(vib)   ...       0.26 
freq.     323.95  E(vib)   ...       0.25 
freq.     331.13  E(vib)   ...       0.24 
freq.     344.48  E(vib)   ...       0.23 
freq.     351.65  E(vib)   ...       0.23 
freq.     368.24  E(vib)   ...       0.21 
freq.     372.50  E(vib)   ...       0.21 
freq.     385.92  E(vib)   ...       0.20 
freq.     393.19  E(vib)   ...       0.20 
freq.     399.43  E(vib)   ...       0.19 
freq.     406.25  E(vib)   ...       0.19 
freq.     408.15  E(vib)   ...       0.19 
freq.     457.88  E(vib)   ...       0.16 
freq.     465.31  E(vib)   ...       0.16 
freq.     484.42  E(vib)   ...       0.15 
freq.     495.59  E(vib)   ...       0.14 
freq.     502.03  E(vib)   ...       0.14 
freq.     514.07  E(vib)   ...       0.13 
freq.     530.85  E(vib)   ...       0.13 
freq.     535.69  E(vib)   ...       0.12 
freq.     547.65  E(vib)   ...       0.12 
freq.     579.59  E(vib)   ...       0.11 
freq.     584.90  E(vib)   ...       0.11 
freq.     592.48  E(vib)   ...       0.10 
freq.     599.19  E(vib)   ...       0.10 
freq.     617.79  E(vib)   ...       0.09 
freq.     628.77  E(vib)   ...       0.09 
freq.     665.77  E(vib)   ...       0.08 
freq.     694.37  E(vib)   ...       0.07 
freq.     700.74  E(vib)   ...       0.07 
freq.     738.56  E(vib)   ...       0.06 
freq.     757.78  E(vib)   ...       0.06 
freq.     767.63  E(vib)   ...       0.06 
freq.     779.69  E(vib)   ...       0.05 
freq.     782.15  E(vib)   ...       0.05 
freq.     793.16  E(vib)   ...       0.05 
freq.     799.63  E(vib)   ...       0.05 
freq.     814.82  E(vib)   ...       0.05 
freq.     837.78  E(vib)   ...       0.04 
freq.     855.66  E(vib)   ...       0.04 
freq.     879.23  E(vib)   ...       0.04 
freq.     895.12  E(vib)   ...       0.03 
freq.     898.78  E(vib)   ...       0.03 
freq.     903.39  E(vib)   ...       0.03 
freq.     917.15  E(vib)   ...       0.03 
freq.     924.30  E(vib)   ...       0.03 
freq.     925.71  E(vib)   ...       0.03 
freq.     937.42  E(vib)   ...       0.03 
freq.     940.78  E(vib)   ...       0.03 
freq.     947.46  E(vib)   ...       0.03 
freq.     949.05  E(vib)   ...       0.03 
freq.     962.02  E(vib)   ...       0.03 
freq.     970.77  E(vib)   ...       0.03 
freq.     976.67  E(vib)   ...       0.03 
freq.     985.15  E(vib)   ...       0.02 
freq.     992.83  E(vib)   ...       0.02 
freq.     994.78  E(vib)   ...       0.02 
freq.     996.90  E(vib)   ...       0.02 
freq.    1000.79  E(vib)   ...       0.02 
freq.    1012.15  E(vib)   ...       0.02 
freq.    1012.89  E(vib)   ...       0.02 
freq.    1020.11  E(vib)   ...       0.02 
freq.    1021.43  E(vib)   ...       0.02 
freq.    1023.64  E(vib)   ...       0.02 
freq.    1036.49  E(vib)   ...       0.02 
freq.    1054.06  E(vib)   ...       0.02 
freq.    1098.85  E(vib)   ...       0.02 
freq.    1103.28  E(vib)   ...       0.02 
freq.    1106.45  E(vib)   ...       0.02 
freq.    1115.95  E(vib)   ...       0.01 
freq.    1124.39  E(vib)   ...       0.01 
freq.    1134.70  E(vib)   ...       0.01 
freq.    1148.67  E(vib)   ...       0.01 
freq.    1153.42  E(vib)   ...       0.01 
freq.    1160.83  E(vib)   ...       0.01 
freq.    1186.28  E(vib)   ...       0.01 
freq.    1193.20  E(vib)   ...       0.01 
freq.    1202.11  E(vib)   ...       0.01 
freq.    1215.00  E(vib)   ...       0.01 
freq.    1218.94  E(vib)   ...       0.01 
freq.    1224.88  E(vib)   ...       0.01 
freq.    1237.77  E(vib)   ...       0.01 
freq.    1240.34  E(vib)   ...       0.01 
freq.    1264.83  E(vib)   ...       0.01 
freq.    1266.66  E(vib)   ...       0.01 
freq.    1274.88  E(vib)   ...       0.01 
freq.    1278.25  E(vib)   ...       0.01 
freq.    1285.15  E(vib)   ...       0.01 
freq.    1297.85  E(vib)   ...       0.01 
freq.    1306.46  E(vib)   ...       0.01 
freq.    1311.46  E(vib)   ...       0.01 
freq.    1323.26  E(vib)   ...       0.01 
freq.    1326.09  E(vib)   ...       0.01 
freq.    1330.69  E(vib)   ...       0.01 
freq.    1336.39  E(vib)   ...       0.01 
freq.    1346.95  E(vib)   ...       0.01 
freq.    1359.53  E(vib)   ...       0.01 
freq.    1379.70  E(vib)   ...       0.01 
freq.    1387.19  E(vib)   ...       0.00 
freq.    1387.93  E(vib)   ...       0.00 
freq.    1403.56  E(vib)   ...       0.00 
freq.    1411.46  E(vib)   ...       0.00 
freq.    1417.92  E(vib)   ...       0.00 
freq.    1421.26  E(vib)   ...       0.00 
freq.    1422.98  E(vib)   ...       0.00 
freq.    1425.22  E(vib)   ...       0.00 
freq.    1427.96  E(vib)   ...       0.00 
freq.    1430.91  E(vib)   ...       0.00 
freq.    1436.85  E(vib)   ...       0.00 
freq.    1483.62  E(vib)   ...       0.00 
freq.    1483.89  E(vib)   ...       0.00 
freq.    1486.77  E(vib)   ...       0.00 
freq.    1487.58  E(vib)   ...       0.00 
freq.    1492.21  E(vib)   ...       0.00 
freq.    1492.58  E(vib)   ...       0.00 
freq.    1494.54  E(vib)   ...       0.00 
freq.    1496.00  E(vib)   ...       0.00 
freq.    1497.36  E(vib)   ...       0.00 
freq.    1498.14  E(vib)   ...       0.00 
freq.    1502.84  E(vib)   ...       0.00 
freq.    1507.93  E(vib)   ...       0.00 
freq.    1514.40  E(vib)   ...       0.00 
freq.    1516.38  E(vib)   ...       0.00 
freq.    1517.21  E(vib)   ...       0.00 
freq.    1519.29  E(vib)   ...       0.00 
freq.    1521.27  E(vib)   ...       0.00 
freq.    1522.26  E(vib)   ...       0.00 
freq.    1525.48  E(vib)   ...       0.00 
freq.    1530.39  E(vib)   ...       0.00 
freq.    1536.02  E(vib)   ...       0.00 
freq.    1554.66  E(vib)   ...       0.00 
freq.    1565.08  E(vib)   ...       0.00 
freq.    1668.26  E(vib)   ...       0.00 
freq.    1702.21  E(vib)   ...       0.00 
freq.    2407.44  E(vib)   ...       0.00 
freq.    2725.06  E(vib)   ...       0.00 
freq.    3093.74  E(vib)   ...       0.00 
freq.    3096.81  E(vib)   ...       0.00 
freq.    3098.28  E(vib)   ...       0.00 
freq.    3101.13  E(vib)   ...       0.00 
freq.    3102.72  E(vib)   ...       0.00 
freq.    3103.95  E(vib)   ...       0.00 
freq.    3106.34  E(vib)   ...       0.00 
freq.    3107.51  E(vib)   ...       0.00 
freq.    3107.87  E(vib)   ...       0.00 
freq.    3111.16  E(vib)   ...       0.00 
freq.    3118.33  E(vib)   ...       0.00 
freq.    3140.94  E(vib)   ...       0.00 
freq.    3154.37  E(vib)   ...       0.00 
freq.    3166.64  E(vib)   ...       0.00 
freq.    3175.94  E(vib)   ...       0.00 
freq.    3178.25  E(vib)   ...       0.00 
freq.    3182.23  E(vib)   ...       0.00 
freq.    3186.74  E(vib)   ...       0.00 
freq.    3189.19  E(vib)   ...       0.00 
freq.    3190.72  E(vib)   ...       0.00 
freq.    3194.89  E(vib)   ...       0.00 
freq.    3198.42  E(vib)   ...       0.00 
freq.    3198.57  E(vib)   ...       0.00 
freq.    3200.07  E(vib)   ...       0.00 
freq.    3203.03  E(vib)   ...       0.00 
freq.    3206.32  E(vib)   ...       0.00 
freq.    3210.72  E(vib)   ...       0.00 
freq.    3216.58  E(vib)   ...       0.00 
freq.    3218.47  E(vib)   ...       0.00 
freq.    3218.97  E(vib)   ...       0.00 
freq.    3234.32  E(vib)   ...       0.00 
freq.    3244.97  E(vib)   ...       0.00 
freq.    3256.46  E(vib)   ...       0.00 
freq.    3268.34  E(vib)   ...       0.00 
freq.    3288.87  E(vib)   ...       0.00 
freq.    3301.31  E(vib)   ...       0.00 
freq.    3315.82  E(vib)   ...       0.00 

------------
INNER ENERGY
------------

The inner energy is: U= E(el) + E(ZPE) + E(vib) + E(rot) + E(trans)
    E(el)   - is the total energy from the electronic structure calculation
              = E(kin-el) + E(nuc-el) + E(el-el) + E(nuc-nuc)
    E(ZPE)  - the the zero temperature vibrational energy from the frequency calculation
    E(vib)  - the the finite temperature correction to E(ZPE) due to population
              of excited vibrational states
    E(rot)  - is the rotational thermal energy
    E(trans)- is the translational thermal energy

Summary of contributions to the inner energy U:
Electronic energy                ...  -1629.04259308 Eh
Zero point energy                ...      0.61188802 Eh     383.96 kcal/mol
Thermal vibrational correction   ...      0.02644236 Eh      16.59 kcal/mol
Thermal rotational correction    ...      0.00141627 Eh       0.89 kcal/mol
Thermal translational correction ...      0.00141627 Eh       0.89 kcal/mol
-----------------------------------------------------------------------
Total thermal energy                  -1628.40143016 Eh


Summary of corrections to the electronic energy:
(perhaps to be used in another calculation)
Total thermal correction                  0.02927491 Eh      18.37 kcal/mol
Non-thermal (ZPE) correction              0.61188802 Eh     383.96 kcal/mol
-----------------------------------------------------------------------
Total correction                          0.64116292 Eh     402.33 kcal/mol


--------
ENTHALPY
--------

The enthalpy is H = U + kB*T
                kB is Boltzmann's constant
Total thermal energy              ...  -1628.40143016 Eh 
Thermal Enthalpy correction       ...      0.00094421 Eh       0.59 kcal/mol
-----------------------------------------------------------------------
Total Enthalpy                    ...  -1628.40048595 Eh


Note: Only C1 symmetry has been detected, increase convergence thresholds 
      if your molecule has a higher symmetry. Symmetry factor of 1.0 is   
      used for the rotational entropy correction. 
 

Note: Rotational entropy computed according to Herzberg 
Infrared and Raman Spectra, Chapter V,1, Van Nostrand Reinhold, 1945 
Point Group:  C1, Symmetry Number:   1  
Rotational constants in cm-1:     0.007577     0.003199     0.003040 

Vibrational entropy computed according to the QRRHO of S. Grimme
Chem.Eur.J. 2012 18 9955 using a reference frequency of 100.0 cm-1


-------
ENTROPY
-------

The entropy contributions are T*S = T*(S(el)+S(vib)+S(rot)+S(trans))
     S(el)   - electronic entropy
     S(vib)  - vibrational entropy
     S(rot)  - rotational entropy
     S(trans)- translational entropy
The entropies will be listed as multiplied by the temperature to get
units of energy

Electronic entropy                ...      0.00000000 Eh      0.00 kcal/mol
Vibrational entropy               ...      0.04526674 Eh     28.41 kcal/mol
Rotational entropy                ...      0.01726406 Eh     10.83 kcal/mol
Translational entropy             ...      0.02096725 Eh     13.16 kcal/mol
-----------------------------------------------------------------------
Final entropy term                ...      0.08349806 Eh     52.40 kcal/mol

In case the symmetry of your molecule has not been determined correctly
or in case you have a reason to use a different symmetry number we print 
out the resulting rotational entropy values for sn=1,12:

 non-linear molecules -----------------------------------
|  sn= 1 | S(rot)=       0.01726406 Eh     10.83 kcal/mol|
|  sn= 2 | S(rot)=       0.01660960 Eh     10.42 kcal/mol|
|  sn= 3 | S(rot)=       0.01622677 Eh     10.18 kcal/mol|
|  sn= 4 | S(rot)=       0.01595515 Eh     10.01 kcal/mol|
|  sn= 5 | S(rot)=       0.01574446 Eh      9.88 kcal/mol|
|  sn= 6 | S(rot)=       0.01557231 Eh      9.77 kcal/mol|
|  sn= 7 | S(rot)=       0.01542677 Eh      9.68 kcal/mol|
|  sn= 8 | S(rot)=       0.01530069 Eh      9.60 kcal/mol|
|  sn= 9 | S(rot)=       0.01518948 Eh      9.53 kcal/mol|
|  sn=10 | S(rot)=       0.01509000 Eh      9.47 kcal/mol|
|  sn=11 | S(rot)=       0.01500001 Eh      9.41 kcal/mol|
|  sn=12 | S(rot)=       0.01491786 Eh      9.36 kcal/mol|
 linear molecules ---------------------------------------
|  Dinfh | S(rot)=       0.01079803 Eh      6.78 kcal/mol|
|  Cinfv | S(rot)=       0.01145249 Eh      7.19 kcal/mol|
 --------------------------------------------------------


-------------------
GIBBS FREE ENERGY
-------------------

The Gibbs free energy is G = H - T*S

Total enthalpy                    ...  -1628.40048595 Eh 
Total entropy correction          ...     -0.08349806 Eh    -52.40 kcal/mol
-----------------------------------------------------------------------
Final Gibbs free energy         ...  -1628.48398401 Eh

For completeness - the Gibbs free energy minus the electronic energy
G-E(el)                           ...      0.55860907 Eh    350.53 kcal/mol

WARNING (PropertyFile): The property 'Hessian' exists multiple times for geometry 1 which is not allowed

Maximum memory used throughout the entire PROP-calculation: 622.4 MB

--------------------------------
SUGGESTED CITATIONS FOR THIS RUN
--------------------------------

Below you find a list of papers that are relevant to this ORCA run
We neither can nor want to force you to cite these papers, but we appreciate if you do
You receive ORCA, which is the product of decades of hard work by many enthusiastic individuals, for free
The only thing we kindly ask in return is that you cite our papers,
We deeply appreciate it, if you show your appreciation for ORCA by not just citing the generic ORCA reference.

Please note that relegating all ORCA citations to the supporting information does *not* help us.
SI sections are not indexed - citations you put there will not count into any citation statistics
But we need these citations in order to attract the funding resources that allow us to do what we are doing

Therefore, if you are a happy ORCA user, please consider citing a few of the papers listed below in the main body of your paper

In addition to the list printed below, the program has created the file input.bibtex that contains the list in bibtex format
You can import this file easily into all common literature databanks and citation aid programs


List of essential papers. We consider these as the minimum necessary citations

  1. Neese, F.
     Software update: the ORCA program system, version 6.0
     WIRES Comput. Molec. Sci. 2025 15(1), e70019
     doi.org/10.1002/wcms.7019

List of papers to cite with high priority. The work reported in these papers was absolutely
necessary for this run to complete.
Our perspective: the developers of density functionals and basis sets usually get cited in chemistry papers
Good! But without the algorithms to do something with them, the functionals or basis sets would not do anything.
Hence, in our opinion, the algorithm design and method developments papers are equally worthy of getting cited

  1. Neese, F.
     An improvement of the resolution of the identity approximation for the formation of the Coulomb matrix
     J. Comp. Chem. 2003 24(14), 1740-1747
     doi.org/10.1002/jcc.10318
  2. Neese, F.; Wennmohs, F.; Hansen, A.; Becker, U.
     Efficient, approximate and parallel Hartree-Fock and hybrid DFT calculations. A 'chain-of-spheres' algorithm for the Hartree-Fock exchange
     Chem. Phys. 2009 356(1-3), 98-109
     doi.org/10.1016/j.chemphys.2008.10.036
  3. Grimme, S.; Antony, J.; Ehrlich, S.; Krieg, H.
     A consistent and accurate ab initio parametrization of density functional dispersion correction (DFT-D) for the 94 elements H-Pu
     J. Chem. Phys. 2010 132 , 154104
     doi.org/10.1063/1.3382344
  4. Bykov, D.; Petrenko, T.; Izsak, R.; Kossmann, S.; Becker, U.; Valeev, E.; Neese, F.
     Efficient implementation of the analytic second derivatives of Hartree-Fock and hybrid DFT energies: a detailed analysis of different approximations
     Molec. Phys. 2015 113 , 1961-1977
     doi.org/10.1080/00268976.2015.1025114
  5. Helmich-Paris, B.; de Souza, B.; Neese, F.; Izsák, R.
     An improved chain of spheres for exchange algorithm
     J. Chem. Phys. 2021 155(10), 104109
     doi.org/10.1063/5.0058766
  6. Neese, F.
     The SHARK Integral Generation and Digestion System
     J. Comp. Chem. 2022 44(3), 381
     doi.org/10.1002/jcc.26942

List of suggested additional citations. These are papers that are important in the 'surrounding' of 
of this run, or papers that preceded the highly important papers. If you like your results we are grateful for a citation.

  1. Izsak, R.; Neese, F.
     An overlap fitted chain of spheres exchange method
     J. Chem. Phys. 2011 135 , 144105
     doi.org/10.1063/1.3646921
  2. Izsak, R.; Hansen, A.; Neese, F.
     The resolution of identity and chain of spheres approximations for the LPNO-CCSD singles Fock term
     Molec. Phys. 2012 110 , 2413-2417
     doi.org/10.1080/00268976.2012.687466
  3. Neese, F.
     The ORCA program system
     WIRES Comput. Molec. Sci. 2012 2(1), 73-78
     doi.org/10.1002/wcms.81
  4. Izsak, R.; Neese, F.; Klopper, W.
     Robust fitting techniques in the chain of spheres approximation to the Fock exchange: The role of the complementary space
     J. Chem. Phys. 2013 139 , 
     doi.org/10.1063/1.4819264
  5. Neese, F.
     Software update: the ORCA program system, version 4.0
     WIRES Comput. Molec. Sci. 2018 8(1), 1-6
     doi.org/10.1002/wcms.1327
  6. Neese, F.; Wennmohs, F.; Becker, U.; Riplinger, C.
     The ORCA quantum chemistry program package
     J. Chem. Phys. 2020 152(22), 224108
     doi.org/10.1063/5.0004608
  7. Neese, F.
     Software update: The ORCA program system—Version 5.0
     WIRES Comput. Molec. Sci. 2022 12(1), e1606
     doi.org/10.1002/wcms.1606

List of optional additional citations

  1. Neese, F.
     Approximate second-order SCF convergence for spin unrestricted wavefunctions
     Chem. Phys. Lett. 2000 325(1-3), 93-98
     doi.org/10.1016/s0009-2614(00)00662-x

Timings for individual modules:

Sum of individual times          ...     1317.850 sec (=  21.964 min)
Startup calculation              ...        2.531 sec (=   0.042 min)   0.2 %
SCF iterations                   ...       83.149 sec (=   1.386 min)   6.3 %
Property integrals               ...      321.635 sec (=   5.361 min)  24.4 %
SCF Response                     ...      521.677 sec (=   8.695 min)  39.6 %
Property calculations            ...      388.858 sec (=   6.481 min)  29.5 %
WARNING (JSON): The property 'Hessian' exists multiple times for geometry 1 which is not allowed => overwriting previous entry!
                             ****ORCA TERMINATED NORMALLY****
TOTAL RUN TIME: 0 days 0 hours 42 minutes 15 seconds 635 msec
