
                                 *****************
                                 * O   R   C   A *
                                 *****************

                                            #,                                       
                                            ###                                      
                                            ####                                     
                                            #####                                    
                                            ######                                   
                                           ########,                                 
                                     ,,################,,,,,                         
                               ,,#################################,,                 
                          ,,##########################################,,             
                       ,#########################################, ''#####,          
                    ,#############################################,,   '####,        
                  ,##################################################,,,,####,       
                ,###########''''           ''''###############################       
              ,#####''   ,,,,##########,,,,          '''####'''          '####       
            ,##' ,,,,###########################,,,                        '##       
           ' ,,###''''                  '''############,,,                           
         ,,##''                                '''############,,,,        ,,,,,,###''
      ,#''                                            '''#######################'''  
     '                                                          ''''####''''         
             ,#######,   #######,   ,#######,      ##                                
            ,#'     '#,  ##    ##  ,#'     '#,    #''#        ,####,    ,#,          
            ##       ##  ##   ,#'  ##            #'  '#       #'       ,# #          
            ##       ##  #######   ##           ,######,      #####,      #          
            '#,     ,#'  ##    ##  '#,     ,#' ,#      #,     #,   #      #          
             '#######'   ##     ##  '#######'  #'      '#     '####' #    #          



                #########################################################
                #                        -***-                          #
                #          Department of theory and spectroscopy        #
                #                                                       #
                #                      Frank Neese                      #
                #                                                       #
                #     Directorship, Architecture, Infrastructure        #
                #                    SHARK, DRIVERS                     #
                #        Core code/Algorithms in most modules           #
                #                                                       #
                #        Max Planck Institute fuer Kohlenforschung      #
                #                Kaiser Wilhelm Platz 1                 #
                #                 D-45470 Muelheim/Ruhr                 #
                #                      Germany                          #
                #                                                       #
                #                  All rights reserved                  #
                #                        -***-                          #
                #########################################################


                         Program Version 6.1.0  -  RELEASE   -
                                (GIT: $679e74b$)
                          ($2025-06-10 18:02:51 +0200$)


 With contributions from (in alphabetic order):
[Max-Planck-Institut fuer Kohlenforschung]                               
  Daniel Aravena         : Magnetic Suceptibility                        
  Michael Atanasov       : Ab Initio Ligand Field Theory (pilot matlab implementation)
  Alexander A. Auer      : GIAO ZORA, VPT2 properties, NMR spectrum      
  Ute Becker             : All parallelization in ORCA, NUMFREQ, NUMCALC 
  Giovanni Bistoni       : ED, misc. LED, open-shell LED, HFLD           
  Dmytro Bykov           : pre 5.0 version of the SCF Hessian            
  Marcos Casanova-Páez   : Triplet and SCS-CIS(D). UHF-(DLPNO)-IP/EA/STEOM-CCSD. UHF-CVS-IP/STEOM-CCSD   
  Vijay G. Chilkuri      : MRCI spin determinant printing, contributions to CSF-ICE 
  Pauline Colinet        : FMM embedding                                 
  Dipayan Datta          : RHF DLPNO-CCSD density                        
  Achintya Kumar Dutta   : EOM-CC, STEOM-CC                              
  Nicolas Foglia         : Exact transition moments, OPA infrastructure, MCD improvements    
  Dmitry Ganyushin       : Spin-Orbit,Spin-Spin,Magnetic field MRCI      
  Miquel Garcia-Rates    : C-PCM and meta-GGA Hessian, CCSD/C-PCM, Gaussian charge scheme 
  Tiago L. C. Gouveia    : GS-ROHF, GS-ROCIS                             
  Yang Guo               : DLPNO-NEVPT2, F12-NEVPT2, CIM, IAO-localization        
  Andreas Hansen         : Spin unrestricted coupled pair/coupled cluster methods 
  Ingolf Harden          : AUTO-CI MPn and infrastructure                
  Benjamin Helmich-Paris : MC-RPA, TRAH-(SCF,CASSCF), AVAS, COSX integrals, SCF dyn. polar., MC-PDFT, srDFT 
  Lee Huntington         : MR-EOM, pCC                                   
  Robert Izsak           : Overlap fitted RIJCOSX, COSX-SCS-MP3, EOM     
  Riya Kayal             : Wick's Theorem for AUTO-CI, AUTO-CI UHF-CCSDT 
  Emily Kempfer          : AUTO-CI RHF CISDT and CCSDT, approximate NEVPT4
  Christian Kollmar      : KDIIS, OOCD, Brueckner-CCSD(T), CCSD density, CASPT2, CASPT2-K, improved NEVPT2 
  Axel Koslowski         : Symmetry handling                             
  Simone Kossmann        : meta-GGA functionals, TD-DFT gradient, OOMP2, (MP2 Hessian; deprecated post 5.0) 
  Lucas Lang             : DCDCAS, Hyperfine gauge corrections, ICE-SOC+SSC
  Marvin Lechner         : AUTO-CI (C++ implementation), FIC-MRCC        
  Spencer Leger          : CASSCF response                               
  Dagmar Lenk            : GEPOL surface, SMD, ORCA-2-JSON               
  Dimitrios Liakos       : Extrapolation schemes; Compound Job, Property file
  Dimitrios Manganas     : Further ROCIS development; embedding schemes. LFT, Crystal Embedding 
  Dimitrios Pantazis     : SARC Basis sets                               
  Anastasios Papadopoulos: AUTO-CI, single reference methods and gradients 
  Taras Petrenko         : pre 6.0 DFT Hessian and TD-DFT gradient,  ECA, NRVS 
  Petra Pikulova         : Analytic Raman intensities                    
  Peter Pinski           : DLPNO-MP2, DLPNO-MP2 Gradient                 
  Shashank Vittal Rao    : ES-AILFT, MagRelax                            
  Christoph Reimann      : Effective Core Potentials                     
  Marius Retegan         : Local ZFS, SOC                                
  Christoph Riplinger    : Optimizer, TS searches, QM/MM, DLPNO-CCSD(T), (RO)-DLPNO pert. Triples 
  Michael Roemelt        : Original ROCIS implementation, recursive CI coupling coefficients
  Masaaki Saitow         : Open-shell DLPNO-CCSD energy and density      
  Barbara Sandhoefer     : DKH picture change effects                    
  Yorick L. A. Schmerwitz: GMF and freeze-and-release deltaSCF, NEB S-IDPP initial path                    
  Kantharuban Sivalingam : CASSCF convergence/infrastructure, NEVPT2, NEVPT3, NEVPT4(SD), FIC-MRCI and CEPA variants
  Bernardo de Souza      : ESD, SOC TD-DFT                               
  Georgi L. Stoychev     : AutoAux, RI-MP2 NMR, DLPNO-MP2 response, X2C  
  Van Anh Tran           : RI-MP2 g-tensors                              
  Willem Van den Heuvel  : Paramagnetic NMR                              
  Zikuan Wang            : NOTCH, Electric field optimization            
  Frank Wennmohs         : Technical directorship and infrastructure     
  Hang Xu                : AUTO-CI-Response properties                   
                                                                         
[FACCTs GmbH]                                                            
  Markus Bursch, Nicolas Foglia, Miquel Garcia-Rates, Ingolf Harden, Hagen Neugebauer, Anastasios Papadopoulos, 
  Christoph Riplinger, Bernardo de Souza, Georgi L. Stoychev                                                    
                                                                 
  APM, various basis sets, CI-OPT, improved COSX, DLPNO-Multilevel,           
  DOCKER, DRACO, updates on ESD, Fragmentator, GOAT, IRC, LR-CPCM, L-BFGS, MBIS, meta-GGA TD-DFT gradient, ML-optimized integration grids, 
  MM, NACMEs, nearIR, NEB, NEB-TS, NL-DFT gradient (VV10), 2- and 3-layer-ONIOM, interface openCOSMO-RS, QMMM,   
  Crystal-QMMM, RESP, rigid body optimization, SF, symmetry and pop. for TD-DFT, various functionals, SOLVATOR                                   
                                                                         
[Other institutions]                                                     
  V. Asgeirsson          : NEB                                           
  Christoph Bannwarth    : sTDA-DFT, sTD-DFT, PBEh-3c, B97-3c, D3        
  Giovanni Bistoni       : ETS/NOCV, ADLD/ADEX, COVALED                  
  Martin Brehm           : Molecular dynamics                            
  Ronald Cardenas        : ETS/NOCV                                      
  Martina Colucci        : COVALED                                       
  Sebastian Ehlert       : rSCAN, r2SCAN, r2SCAN-3c, D4, dhf basis sets  
  Marvin Friede          : D4 for Fr, Ra, Ac-Lr                          
  Lars Goerigk           : TD-DFT with DH, B97 family of functionals     
  Stefan Grimme          : VdW corrections, initial TS optimization, DFT functionals, gCP, sTDA/sTD-DF 
  Waldemar Hujo          : DFT-NL                                        
  H. Jonsson             : NEB                                           
  Holger Kruse           : gCP                                           
  Marcel Mueller         : wB97X-3c, vDZP basis set                      
  Hagen Neugebauer       : wr2SCAN, Native XTB                           
  Gianluca Regni         : ADLD/ADEX                                     
  Tobias Risthaus        : pre 6.0 range-separated hybrid DFT and stability analysis
  Lukas Wittmann         : regularized MP2, r2SCAN double-hybrids, wr2SCAN        
                                                                         
We gratefully acknowledge several colleagues who have allowed us to      
interface, adapt or use parts of their codes:                            
  Ed Valeev, F. Pavosevic, A. Kumar             : LibInt (2-el integral package), F12 methods 
  Garnet Chan, S. Sharma, J. Yang, R. Olivares  : DMRG                   
  Ulf Ekstrom                                   : XCFun DFT Library      
  Mihaly Kallay                                 : mrcc  (arbitrary order and MRCC methods)
  Frank Weinhold                                : gennbo (NPA and NBO analysis)           
  Simon Mueller                                 : openCOSMO-RS                            
  Christopher J. Cramer and Donald G. Truhlar   : smd solvation model                     
  S Lehtola, MJT Oliveira, MAL Marques          : LibXC Library                           
  Liviu Ungur et al                             : ANISO software                          


 Your calculation uses the libint2 library for the computation of 2-el integrals
 For citations please refer to: http://libint.valeyev.net

 Your ORCA version has been built with support for libXC version: 7.0.0
 For citations please refer to: https://libxc.gitlab.io

 This ORCA versions uses:
   CBLAS   interface :  Fast vector & matrix operations
   LAPACKE interface :  Fast linear algebra routines
   SCALAPACK package :  Parallel linear algebra routines
   Shared memory     :  Shared parallel matrices
   BLAS/LAPACK       :  OpenBLAS 0.3.29  USE64BITINT DYNAMIC_ARCH NO_AFFINITY Haswell SINGLE_THREADED
        Core in use  :  Haswell
   Copyright (c) 2011-2014, The OpenBLAS Project


  ***********************************
  * Starting time: Tue Jul 15 17:01:03 2025
  * Host name:     node311.cluster
  * Process ID:    96036
  * Working dir.:  /scratch/53034150/_e0ifd0
  ***********************************

NOTE: MaxCore=3840 MB was set to SCF,MP2,MDCI,CIPSI,MRCI,RASCI and CIS
      => If you want to overwrite this, your respective input block should be placed after the MaxCore statement
Your calculation utilizes the atom-pairwise dispersion correction
with the zero-damping scheme (D30)


XCFun DFT library Copyright 2009-2010 Ulf Ekstrom and contributors.
See http://admol.org/xcfun for more information.
This is free software; see the source code for copying conditions.
There is ABSOLUTELY NO WARRANTY; not even for MERCHANTABILITY or FITNESS FOR A PARTICULAR PURPOSE.
For details see the documentation.
Scientific users of this library should cite U. Ekstrom, L. Visscher, R. Bast, A. J. Thorvaldsen and K. Ruud;
J.Chem.Theor.Comp. 2010, DOI: 10.1021/ct100117s
XCFun Version 0.99 

Warning: RI is on but no J-basis has been assigned. Assigning Def2/J (nothing to worry about!)
================================================================================

----- Orbital basis set information -----
Your calculation utilizes the basis: 6-31+G**
   H-He, Li-Ne : W. J. Hehre, R. Ditchfield and J.A. Pople, J. Chem. Phys. 56, 2257 (1972).
                 Note: He and Ne are unpublished basis sets taken from the Gaussian program.
                 Note: Li and B from J. D. Dill and J. A. Pople, J. Chem. Phys. 62, 2921 (1975).
   Na - Ar     : M. M. Francl, W. J. Pietro, W. J. Hehre, J. S. Binkley, M. S. Gordon, 
                 D. J. DeFrees and J. A. Pople, J. Chem. Phys. 77, 3654 (1982).
   K - Zn      : V. A. Rassolov, J. A. Pople, M. A. Ratner, and T. L. Windus, J. Chem. Phys. 109, 1223 (1998).
   Additional Pol./Diff. from the 6-311G equivalent.

----- AuxJ basis set information -----
Your calculation utilizes the auxiliary basis: def2/J
   H-Rn: F. Weigend, Phys. Chem. Chem. Phys. 8, 1057 (2006).
   Fr-Lr: K. Eichkorn, F. Weigend, O. Treutler, R. Ahlrichs; Theor. Chem. Acc. 97, 119 (1997).

================================================================================
                                        WARNINGS
                       Please study these warnings very carefully!
================================================================================


================================================================================
                                       INPUT FILE
================================================================================
NAME = input.inp
|  1> # Automatically generated ORCA input
|  2> 
|  3> # Number of cores
|  4> %pal nprocs 8 end
|  5> # RAM per core
|  6> %maxcore 3840
|  7> 
|  8> ! wB97X-D3 
|  9> ! 6-31+G** 
| 10> ! TightSCF 
| 11> ! Freq 
| 12> ! NoSym 
| 13> 
| 14> %geom
| 15>   Calc_Hess true
| 16> end
| 17> %Output
| 18>   JSONPropFile True
| 19> End
| 20> 
| 21> 
| 22> *xyz 0 1 
| 23> C        -2.23494600     -1.44824400      0.97690300
| 24> C        -1.07094800     -0.72540600      0.63015000
| 25> C        -0.02669200     -1.43320700      0.02757900
| 26> C        -0.09926900     -2.80246400     -0.22444300
| 27> C        -1.24558300     -3.49625200      0.13450300
| 28> C        -2.30962500     -2.82006800      0.72892800
| 29> H         0.88674100     -0.89680500     -0.21550800
| 30> H         0.73793100     -3.32012800     -0.68245600
| 31> H        -1.32365800     -4.56412700     -0.04787800
| 32> H        -3.20488100     -3.37229400      0.99636300
| 33> N        -3.30028800     -0.75640700      1.62935200
| 34> B        -0.87051000      0.81403000      0.96092400
| 35> H         1.94202100      3.87821500     -0.00484800
| 36> H         3.52011700      3.08684900     -0.18651500
| 37> H         2.02499000      2.13346700     -0.27388700
| 38> C         4.10277000      0.76091500      1.23660200
| 39> H         4.99242000      1.39511000      1.16824800
| 40> H         4.40962500     -0.21763000      1.61472700
| 41> H         3.69004200      0.62348700      0.23607300
| 42> C         3.60050900      1.35136000      3.61734600
| 43> H         3.75986900      0.31196600      3.91458500
| 44> H         4.54848300      1.88825400      3.71205600
| 45> H         2.87551500      1.79430800      4.30579600
| 46> C        -0.56853000      0.98463600      2.87601700
| 47> C        -0.69781700     -0.22387100      3.56453900
| 48> C        -1.63249200     -0.20703900      4.60713400
| 49> H        -1.74806900      1.61281700      0.80887900
| 50> H         0.17620500      1.24351800      0.51534300
| 51> C         2.54872100      2.78837100      1.74157800
| 52> C         3.07798200      1.37488200      2.17971000
| 53> O         1.18545100      2.76271500      2.21329000
| 54> O         1.88496100      0.56713700      2.15675800
| 55> B         0.81869500      1.43771700      2.25810700
| 56> C         3.26051100      3.96438600      2.39504500
| 57> H         2.83279800      4.90100900      2.02862200
| 58> H         3.15086300      3.94276600      3.48030500
| 59> H         4.32665800      3.95510500      2.14702400
| 60> C         2.51263800      2.97498300      0.22399200
| 61> H        -0.11680700     -1.09227400      3.27755500
| 62> C        -2.22153200      1.03210500      4.73611200
| 63> H        -1.87656000     -1.05677500      5.23114400
| 64> H        -2.98493100      1.31622500      5.44873800
| 65> S        -1.64065500      2.15773800      3.60861000
| 66> C        -4.12798900      0.04105900      0.73540100
| 67> H        -4.79099300     -0.58709400      0.11435400
| 68> H        -4.75157000      0.72097200      1.32554100
| 69> H        -3.50137000      0.63996600      0.07599900
| 70> C        -4.11474000     -1.54206800      2.53242400
| 71> H        -4.69543900     -0.86255600      3.16577800
| 72> H        -4.83179900     -2.21188300      2.02376600
| 73> H        -3.47565400     -2.14842600      3.17918200
| 74> *
| 75> 
| 76> 
| 77>                          ****END OF INPUT****
================================================================================

                       ****************************
                       * Single Point Calculation *
                       ****************************

---------------------------------
CARTESIAN COORDINATES (ANGSTROEM)
---------------------------------
  C     -2.234946   -1.448244    0.976903
  C     -1.070948   -0.725406    0.630150
  C     -0.026692   -1.433207    0.027579
  C     -0.099269   -2.802464   -0.224443
  C     -1.245583   -3.496252    0.134503
  C     -2.309625   -2.820068    0.728928
  H      0.886741   -0.896805   -0.215508
  H      0.737931   -3.320128   -0.682456
  H     -1.323658   -4.564127   -0.047878
  H     -3.204881   -3.372294    0.996363
  N     -3.300288   -0.756407    1.629352
  B     -0.870510    0.814030    0.960924
  H      1.942021    3.878215   -0.004848
  H      3.520117    3.086849   -0.186515
  H      2.024990    2.133467   -0.273887
  C      4.102770    0.760915    1.236602
  H      4.992420    1.395110    1.168248
  H      4.409625   -0.217630    1.614727
  H      3.690042    0.623487    0.236073
  C      3.600509    1.351360    3.617346
  H      3.759869    0.311966    3.914585
  H      4.548483    1.888254    3.712056
  H      2.875515    1.794308    4.305796
  C     -0.568530    0.984636    2.876017
  C     -0.697817   -0.223871    3.564539
  C     -1.632492   -0.207039    4.607134
  H     -1.748069    1.612817    0.808879
  H      0.176205    1.243518    0.515343
  C      2.548721    2.788371    1.741578
  C      3.077982    1.374882    2.179710
  O      1.185451    2.762715    2.213290
  O      1.884961    0.567137    2.156758
  B      0.818695    1.437717    2.258107
  C      3.260511    3.964386    2.395045
  H      2.832798    4.901009    2.028622
  H      3.150863    3.942766    3.480305
  H      4.326658    3.955105    2.147024
  C      2.512638    2.974983    0.223992
  H     -0.116807   -1.092274    3.277555
  C     -2.221532    1.032105    4.736112
  H     -1.876560   -1.056775    5.231144
  H     -2.984931    1.316225    5.448738
  S     -1.640655    2.157738    3.608610
  C     -4.127989    0.041059    0.735401
  H     -4.790993   -0.587094    0.114354
  H     -4.751570    0.720972    1.325541
  H     -3.501370    0.639966    0.075999
  C     -4.114740   -1.542068    2.532424
  H     -4.695439   -0.862556    3.165778
  H     -4.831799   -2.211883    2.023766
  H     -3.475654   -2.148426    3.179182

----------------------------
CARTESIAN COORDINATES (A.U.)
----------------------------
  NO LB      ZA    FRAG     MASS         X           Y           Z
   0 C     6.0000    0    12.011   -4.223436   -2.736785    1.846079
   1 C     6.0000    0    12.011   -2.023798   -1.370819    1.190811
   2 C     6.0000    0    12.011   -0.050441   -2.708369    0.052117
   3 C     6.0000    0    12.011   -0.187591   -5.295889   -0.424136
   4 C     6.0000    0    12.011   -2.353811   -6.606959    0.254174
   5 C     6.0000    0    12.011   -4.364559   -5.329156    1.377474
   6 H     1.0000    0     1.008    1.675698   -1.694716   -0.407251
   7 H     1.0000    0     1.008    1.394487   -6.274133   -1.289655
   8 H     1.0000    0     1.008   -2.501351   -8.624950   -0.090476
   9 H     1.0000    0     1.008   -6.056347   -6.372712    1.882853
  10 N     7.0000    0    14.007   -6.236640   -1.429402    3.079029
  11 B     5.0000    0    10.810   -1.645025    1.538294    1.815883
  12 H     1.0000    0     1.008    3.669888    7.328764   -0.009161
  13 H     1.0000    0     1.008    6.652057    5.833299   -0.352462
  14 H     1.0000    0     1.008    3.826677    4.031668   -0.517571
  15 C     6.0000    0    12.011    7.753112    1.437921    2.336839
  16 H     1.0000    0     1.008    9.434307    2.636376    2.207669
  17 H     1.0000    0     1.008    8.332984   -0.411261    3.051392
  18 H     1.0000    0     1.008    6.973169    1.178220    0.446113
  19 C     6.0000    0    12.011    6.803976    2.553700    6.835793
  20 H     1.0000    0     1.008    7.105123    0.589530    7.397494
  21 H     1.0000    0     1.008    8.595387    3.568283    7.014769
  22 H     1.0000    0     1.008    5.433936    3.390751    8.136775
  23 C     6.0000    0    12.011   -1.074366    1.860692    5.434884
  24 C     6.0000    0    12.011   -1.318683   -0.423055    6.736003
  25 C     6.0000    0    12.011   -3.084963   -0.391247    8.706222
  26 H     1.0000    0     1.008   -3.303372    3.047782    1.528560
  27 H     1.0000    0     1.008    0.332979    2.349908    0.973857
  28 C     6.0000    0    12.011    4.816385    5.269258    3.291105
  29 C     6.0000    0    12.011    5.816543    2.598150    4.119055
  30 O     8.0000    0    15.999    2.240178    5.220775    4.182512
  31 O     8.0000    0    15.999    3.562060    1.071734    4.075682
  32 B     5.0000    0    10.810    1.547109    2.716891    4.267204
  33 C     6.0000    0    12.011    6.161473    7.491604    4.525979
  34 H     1.0000    0     1.008    5.353212    9.261565    3.833540
  35 H     1.0000    0     1.008    5.954268    7.450748    6.576823
  36 H     1.0000    0     1.008    8.176199    7.474065    4.057287
  37 C     6.0000    0    12.011    4.748198    5.621903    0.423284
  38 H     1.0000    0     1.008   -0.220733   -2.064099    6.193681
  39 C     6.0000    0    12.011   -4.198087    1.950396    8.949955
  40 H     1.0000    0     1.008   -3.546184   -1.997015    9.885430
  41 H     1.0000    0     1.008   -5.640702    2.487305   10.296623
  42 S    16.0000    0    32.060   -3.100389    4.077534    6.819285
  43 C     6.0000    0    12.011   -7.800769    0.077590    1.389706
  44 H     1.0000    0     1.008   -9.053665   -1.109447    0.216098
  45 H     1.0000    0     1.008   -8.979166    1.362440    2.504909
  46 H     1.0000    0     1.008   -6.616630    1.209360    0.143617
  47 C     6.0000    0    12.011   -7.775732   -2.914086    4.785588
  48 H     1.0000    0     1.008   -8.873094   -1.629995    5.982453
  49 H     1.0000    0     1.008   -9.130777   -4.179853    3.824363
  50 H     1.0000    0     1.008   -6.568034   -4.059937    6.007783

--------------------------------
INTERNAL COORDINATES (ANGSTROEM)
--------------------------------
 C      0   0   0     0.000000000000     0.00000000     0.00000000
 C      1   0   0     1.413373185417     0.00000000     0.00000000
 C      2   1   0     1.398050306383   117.51405108     0.00000000
 C      3   2   1     1.394147496308   122.42994330   359.51973884
 C      4   3   2     1.387162501820   119.17392283   359.90523427
 C      5   4   3     1.393826122673   119.90535353     0.53072304
 H      3   2   1     1.086820243031   118.31394751   181.92352397
 H      4   3   2     1.085659138526   120.29323017   180.81243112
 H      5   4   3     1.086147112693   120.50985827   180.26175603
 H      6   5   4     1.085337892012   119.20577375   179.40793775
 N      1   2   3     1.428034211472   118.60139317   178.17955438
 B      2   1   3     1.587277552609   123.29049973   183.36233352
 H     12   2   1     4.269926919301   137.05716850   188.53467621
 H     13  12   2     1.774725339330   106.78999525   327.97571582
 H     13  12   2     1.767317578135    49.97652159   349.22070393
 C     14  13  12     2.788317680332   120.36653917   330.99809860
 H     16  14  13     1.094692966014    69.79914697   217.16496042
 H     16  14  13     1.093018217449   169.12381425   135.93625601
 H     16  14  13     1.091003729145    63.76621858    92.74893392
 C     16  14  13     2.503763847427   104.28073946   307.20285675
 H     20  16  14     1.092742659530    90.29118815   172.82492302
 H     20  16  14     1.093562918177    91.38870500   281.32055250
 H     20  16  14     1.093518464974   145.80826692    48.74020226
 C     12   2   1     1.946247550104   108.03904859    72.51804602
 C     24  12   2     1.396877532893   113.25424252   355.02051838
 C     25  24  12     1.400323179082   114.73121023   236.14130792
 H     12   2   1     1.196364556427   121.90028871   317.29648374
 H     12   2   1     1.215983001908   112.01777066   183.25644317
 C     13  12   2     2.146124089565    68.76030902   271.98923049
 C     16  14  13     1.522037654494    80.73891772   333.28276927
 O     29  13  12     1.442801280212    90.45659073   319.26066070
 O     30  16  14     1.440929521444   108.75148918   111.21579991
 B     31  29  13     1.375550154312   106.24281071   117.14825089
 C     29  13  12     1.522062877944    95.11805848   210.76521726
 H     34  29  13     1.092916680002   109.58449469    25.27437645
 H     34  29  13     1.090999255684   111.39283136   144.88348675
 H     34  29  13     1.094655187267   110.58785131   266.07074186
 C     13  12   2     1.092611345407    72.74584808   316.89760858
 H     25  24  12     1.083538742623   120.87698102    55.17742122
 C     26  25  24     1.378071586972   111.45647716   359.31161166
 H     26  25  24     1.082131664087   124.78110048   178.67776310
 H     40  26  25     1.082283707480   126.81097905   179.04027505
 S     40  26  25     1.695797305052   112.84367187   359.79412159
 C     11   1   2     1.456087001851   114.13577504    78.60343622
 H     44  11   1     1.104468139710   112.02232830    73.66500253
 H     44  11   1     1.095171297437   109.44206888   193.81718828
 H     44  11   1     1.089106038645   110.23243936   312.71420321
 C     11   1   2     1.447803268545   116.21575533   209.96488194
 H     48  11   1     1.095483991695   108.79701033   164.34166551
 H     48  11   1     1.105241468942   114.00212391   284.09319046
 H     48  11   1     1.092884646303   109.95313706    46.03603858

---------------------------
INTERNAL COORDINATES (A.U.)
---------------------------
 C      0   0   0     0.000000000000     0.00000000     0.00000000
 C      1   0   0     2.670888245467     0.00000000     0.00000000
 C      2   1   0     2.641932200509   117.51405108     0.00000000
 C      3   2   1     2.634556958314   122.42994330   359.51973884
 C      4   3   2     2.621357231685   119.17392283   359.90523427
 C      5   4   3     2.633949650157   119.90535353     0.53072304
 H      3   2   1     2.053792616130   118.31394751   181.92352397
 H      4   3   2     2.051598446603   120.29323017   180.81243112
 H      5   4   3     2.052520584139   120.50985827   180.26175603
 H      6   5   4     2.050991378670   119.20577375   179.40793775
 N      1   2   3     2.698593569552   118.60139317   178.17955438
 B      2   1   3     2.999519872952   123.29049973   183.36233352
 H     12   2   1     8.068992489337   137.05716850   188.53467621
 H     13  12   2     3.353744854265   106.78999525   327.97571582
 H     13  12   2     3.339746214341    49.97652159   349.22070393
 C     14  13  12     5.269156790199   120.36653917   330.99809860
 H     16  14  13     2.068669906497    69.79914697   217.16496042
 H     16  14  13     2.065505090365   169.12381425   135.93625601
 H     16  14  13     2.061698259171    63.76621858    92.74893392
 C     16  14  13     4.731427975650   104.28073946   307.20285675
 H     20  16  14     2.064984361365    90.29118815   172.82492302
 H     20  16  14     2.066534425566    91.38870500   281.32055250
 H     20  16  14     2.066450421188   145.80826692    48.74020226
 C     12   2   1     3.677874858511   108.03904859    72.51804602
 C     24  12   2     2.639715979796   113.25424252   355.02051838
 C     25  24  12     2.646227307447   114.73121023   236.14130792
 H     12   2   1     2.260801367977   121.90028871   317.29648374
 H     12   2   1     2.297874857110   112.01777066   183.25644317
 C     13  12   2     4.055586778689    68.76030902   271.98923049
 C     16  14  13     2.876234332509    80.73891772   333.28276927
 O     29  13  12     2.726499285271    90.45659073   319.26066070
 O     30  16  14     2.722962173812   108.75148918   111.21579991
 B     31  29  13     2.599413075124   106.24281071   117.14825089
 C     29  13  12     2.876281997921    95.11805848   210.76521726
 H     34  29  13     2.065313212399   109.58449469    25.27437645
 H     34  29  13     2.061689805556   111.39283136   144.88348675
 H     34  29  13     2.068598515011   110.58785131   266.07074186
 C     13  12   2     2.064736213635    72.74584808   316.89760858
 H     25  24  12     2.047591479051   120.87698102    55.17742122
 C     26  25  24     2.604177892316   111.45647716   359.31161166
 H     26  25  24     2.044932485969   124.78110048   178.67776310
 H     40  26  25     2.045219806342   126.81097905   179.04027505
 S     40  26  25     3.204592485190   112.84367187   359.79412159
 C     11   1   2     2.751605660660   114.13577504    78.60343622
 H     44  11   1     2.087142307693   112.02232830    73.66500253
 H     44  11   1     2.069573821887   109.44206888   193.81718828
 H     44  11   1     2.058112143840   110.23243936   312.71420321
 C     11   1   2     2.735951673346   116.21575533   209.96488194
 H     48  11   1     2.070164728399   108.79701033   164.34166551
 H     48  11   1     2.088603688154   114.00212391   284.09319046
 H     48  11   1     2.065252677479   109.95313706    46.03603858

---------------------
BASIS SET INFORMATION
---------------------
There are 6 groups of distinct atoms

 Group   1 Type C   : 11s5p1d contracted to 4s3p1d pattern {6311/311/1}
 Group   2 Type H   : 4s1p contracted to 2s1p pattern {31/1}
 Group   3 Type N   : 11s5p1d contracted to 4s3p1d pattern {6311/311/1}
 Group   4 Type B   : 11s5p1d contracted to 4s3p1d pattern {6311/311/1}
 Group   5 Type O   : 11s5p1d contracted to 4s3p1d pattern {6311/311/1}
 Group   6 Type S   : 17s11p1d contracted to 5s4p1d pattern {66311/6311/1}

Atom   0C    basis set group =>   1
Atom   1C    basis set group =>   1
Atom   2C    basis set group =>   1
Atom   3C    basis set group =>   1
Atom   4C    basis set group =>   1
Atom   5C    basis set group =>   1
Atom   6H    basis set group =>   2
Atom   7H    basis set group =>   2
Atom   8H    basis set group =>   2
Atom   9H    basis set group =>   2
Atom  10N    basis set group =>   3
Atom  11B    basis set group =>   4
Atom  12H    basis set group =>   2
Atom  13H    basis set group =>   2
Atom  14H    basis set group =>   2
Atom  15C    basis set group =>   1
Atom  16H    basis set group =>   2
Atom  17H    basis set group =>   2
Atom  18H    basis set group =>   2
Atom  19C    basis set group =>   1
Atom  20H    basis set group =>   2
Atom  21H    basis set group =>   2
Atom  22H    basis set group =>   2
Atom  23C    basis set group =>   1
Atom  24C    basis set group =>   1
Atom  25C    basis set group =>   1
Atom  26H    basis set group =>   2
Atom  27H    basis set group =>   2
Atom  28C    basis set group =>   1
Atom  29C    basis set group =>   1
Atom  30O    basis set group =>   5
Atom  31O    basis set group =>   5
Atom  32B    basis set group =>   4
Atom  33C    basis set group =>   1
Atom  34H    basis set group =>   2
Atom  35H    basis set group =>   2
Atom  36H    basis set group =>   2
Atom  37C    basis set group =>   1
Atom  38H    basis set group =>   2
Atom  39C    basis set group =>   1
Atom  40H    basis set group =>   2
Atom  41H    basis set group =>   2
Atom  42S    basis set group =>   6
Atom  43C    basis set group =>   1
Atom  44H    basis set group =>   2
Atom  45H    basis set group =>   2
Atom  46H    basis set group =>   2
Atom  47C    basis set group =>   1
Atom  48H    basis set group =>   2
Atom  49H    basis set group =>   2
Atom  50H    basis set group =>   2
---------------------------------
AUXILIARY/J BASIS SET INFORMATION
---------------------------------
There are 6 groups of distinct atoms

 Group   1 Type C   : 12s5p4d2f1g contracted to 6s4p3d1f1g pattern {711111/2111/211/2/1}
 Group   2 Type H   : 5s2p1d contracted to 3s1p1d pattern {311/2/1}
 Group   3 Type N   : 12s5p4d2f1g contracted to 6s4p3d1f1g pattern {711111/2111/211/2/1}
 Group   4 Type B   : 12s5p4d2f1g contracted to 6s4p3d1f1g pattern {711111/2111/211/2/1}
 Group   5 Type O   : 12s5p4d2f1g contracted to 6s4p3d1f1g pattern {711111/2111/211/2/1}
 Group   6 Type S   : 14s5p5d2f1g contracted to 8s4p3d1f1g pattern {71111111/2111/311/2/1}

Atom   0C    basis set group =>   1
Atom   1C    basis set group =>   1
Atom   2C    basis set group =>   1
Atom   3C    basis set group =>   1
Atom   4C    basis set group =>   1
Atom   5C    basis set group =>   1
Atom   6H    basis set group =>   2
Atom   7H    basis set group =>   2
Atom   8H    basis set group =>   2
Atom   9H    basis set group =>   2
Atom  10N    basis set group =>   3
Atom  11B    basis set group =>   4
Atom  12H    basis set group =>   2
Atom  13H    basis set group =>   2
Atom  14H    basis set group =>   2
Atom  15C    basis set group =>   1
Atom  16H    basis set group =>   2
Atom  17H    basis set group =>   2
Atom  18H    basis set group =>   2
Atom  19C    basis set group =>   1
Atom  20H    basis set group =>   2
Atom  21H    basis set group =>   2
Atom  22H    basis set group =>   2
Atom  23C    basis set group =>   1
Atom  24C    basis set group =>   1
Atom  25C    basis set group =>   1
Atom  26H    basis set group =>   2
Atom  27H    basis set group =>   2
Atom  28C    basis set group =>   1
Atom  29C    basis set group =>   1
Atom  30O    basis set group =>   5
Atom  31O    basis set group =>   5
Atom  32B    basis set group =>   4
Atom  33C    basis set group =>   1
Atom  34H    basis set group =>   2
Atom  35H    basis set group =>   2
Atom  36H    basis set group =>   2
Atom  37C    basis set group =>   1
Atom  38H    basis set group =>   2
Atom  39C    basis set group =>   1
Atom  40H    basis set group =>   2
Atom  41H    basis set group =>   2
Atom  42S    basis set group =>   6
Atom  43C    basis set group =>   1
Atom  44H    basis set group =>   2
Atom  45H    basis set group =>   2
Atom  46H    basis set group =>   2
Atom  47C    basis set group =>   1
Atom  48H    basis set group =>   2
Atom  49H    basis set group =>   2
Atom  50H    basis set group =>   2


           ************************************************************
           *        Program running with 8 parallel MPI-processes     *
           *              working on a common directory               *
           ************************************************************
------------------------------------------------------------------------------
                             ORCA STARTUP CALCULATIONS
                           -- RI-GTO INTEGRALS CHOSEN --
------------------------------------------------------------------------------
------------------------------------------------------------------------------
                   ___                                                        
                  /   \      - P O W E R E D   B Y -                         
                 /     \                                                     
                 |  |  |   _    _      __       _____    __    __             
                 |  |  |  | |  | |    /  \     |  _  \  |  |  /  |          
                  \  \/   | |  | |   /    \    | | | |  |  | /  /          
                 / \  \   | |__| |  /  /\  \   | |_| |  |  |/  /          
                |  |  |   |  __  | /  /__\  \  |    /   |      \           
                |  |  |   | |  | | |   __   |  |    \   |  |\   \          
                \     /   | |  | | |  |  |  |  | |\  \  |  | \   \       
                 \___/    |_|  |_| |__|  |__|  |_| \__\ |__|  \__/        
                                                                              
                      - O R C A' S   B I G   F R I E N D -                    
                                      &                                       
                       - I N T E G R A L  F E E D E R -                       
                                                                              
 v1 FN, 2020, v2 2021, v3 2022-2024                                           
------------------------------------------------------------------------------


----------------------
SHARK INTEGRAL PACKAGE
----------------------

Number of atoms                             ...     51
Number of basis functions                   ...    571
Number of shells                            ...    275
Maximum angular momentum                    ...      2
Integral batch strategy                     ... SHARK/LIBINT Hybrid
RI-J (if used) integral strategy            ... SPLIT-RIJ (Revised 2003 algorithm where possible)
Printlevel                                  ...      1
Contraction scheme used                     ... SEGMENTED contraction
Prescreening option                         ... SCHWARTZ
   Thresh                                   ... 2.500e-11
   Tcut                                     ... 2.500e-12
   Tpresel                                  ... 2.500e-12 
Coulomb Range Separation                    ... NOT USED
Exchange Range Separation                   ... Long Range
   Mu parameter                             ... 2.500e-01
   Scaling (regular/separated)              ... 1.957e-01 8.043e-01
Robust (split-)RI terms used:
  metric    (central integrals)             ... YES
  density   (r.h.s.  integrals)             ... YES
  potential (l.h.s.  integrals)             ... YES
Multipole approximations                    ... NOT USED
Finite Nucleus Model                        ... NOT USED
CABS basis                                  ... NOT available
Auxiliary Coulomb fitting basis             ... AVAILABLE
   # of basis functions in Aux-J            ...   1475
   # of shells in Aux-J                     ...    497
   Maximum angular momentum in Aux-J        ...      4
Auxiliary J/K fitting basis                 ... NOT available
Auxiliary Correlation fitting basis         ... NOT available
Auxiliary 'external' fitting basis          ... NOT available

Checking pre-screening integrals            ... done (  0.0 sec) Dimension = 275
   => SHARK Basis and OBASIS are compatible. Storing Pre-screening
Shell pair information
Shell pair cut-off parameter TPreSel        ...   2.5e-12
Total number of shell pairs                 ...     37950
Shell pairs after pre-screening             ...     29834
Total number of primitive shell pairs       ...    154905
Primitive shell pairs kept                  ...     75818
          la=0 lb=0:   8957 shell pairs
          la=1 lb=0:  12130 shell pairs
          la=1 lb=1:   4174 shell pairs
          la=2 lb=0:   2586 shell pairs
          la=2 lb=1:   1796 shell pairs
          la=2 lb=2:    191 shell pairs

Checking whether 4 symmetric matrices of dimension 571 fit in memory
:Max Core in MB      =   3840.00
 MB in use           =     40.58
 MB left             =   3799.42
 MB needed           =      4.98
 Data fit in memory  = YES
Calculating RI/J V-Matrix + Cholesky decomp.... done (  0.4 sec)
Calculating Nuclear repulsion               ... done (  0.0 sec) ENN=   2331.589104871985 Eh

Diagonalization of the overlap matrix:
Smallest eigenvalue                        ... 9.371e-07
Time for diagonalization                   ...    0.171 sec
Threshold for overlap eigenvalues          ... 1.000e-07
Number of eigenvalues below threshold      ... 0

IMPORTANT:
Smallest eigenvalue of S below the DiffSThresh (1.000e-06) while
Thresh>1e-12 and/or TCut>1e-13! In order to avoid SCF convergence issues,
Thresh will be set to at least 1e-12 and TCut to at least 1e-13.
This can be turned off by adding %SCF DiffSThresh -1 END to the input.

Time for construction of square roots      ...    0.041 sec
Total time needed                          ...    0.220 sec

-------------------
DFT GRID GENERATION
-------------------

General Integration Accuracy     IntAcc      ... 4.388
Radial Grid Type                 RadialGrid  ... OptM3 with GC (2021)
Angular Grid (max. ang.)         AngularGrid ... 4 (Lebedev-302)
Angular grid pruning method      GridPruning ... 4 (adaptive)
Weight generation scheme         WeightScheme... mBecke (2022)
Basis function cutoff            BFCut       ... 1.0000e-11
Integration weight cutoff        WCut        ... 1.0000e-14
Partially contracted basis set               ... off
Rotationally invariant grid construction     ... off
Angular grids for H and He will be reduced by one unit
Diffuse basis detected: some atoms will have their outermost
                        angular grid increased by 1.

Total number of grid points                  ...   233480
Total number of batches                      ...     3675
Average number of points per batch           ...       63
Average number of grid points per atom       ...     4578

--------------------
COSX GRID GENERATION
--------------------

GRIDX 1
-------
General Integration Accuracy     IntAcc      ... 3.816
Radial Grid Type                 RadialGrid  ... OptM3 with GC (2021)
Angular Grid (max. ang.)         AngularGrid ... 1 (Lebedev-50)
Angular grid pruning method      GridPruning ... 4 (adaptive)
Weight generation scheme         WeightScheme... mBecke (2022)
Basis function cutoff            BFCut       ... 1.0000e-11
Integration weight cutoff        WCut        ... 1.0000e-14
Partially contracted basis set               ... on
Rotationally invariant grid construction     ... off
Angular grids for H and He will be reduced by one unit
Diffuse basis detected: some atoms will have their outermost
                        angular grid increased by 1.

Total number of grid points                  ...    30784
Total number of batches                      ...      266
Average number of points per batch           ...      115
Average number of grid points per atom       ...      604
UseSFitting                                  ... on

GRIDX 2
-------
General Integration Accuracy     IntAcc      ... 4.020
Radial Grid Type                 RadialGrid  ... OptM3 with GC (2021)
Angular Grid (max. ang.)         AngularGrid ... 2 (Lebedev-110)
Angular grid pruning method      GridPruning ... 4 (adaptive)
Weight generation scheme         WeightScheme... mBecke (2022)
Basis function cutoff            BFCut       ... 1.0000e-11
Integration weight cutoff        WCut        ... 1.0000e-14
Partially contracted basis set               ... on
Rotationally invariant grid construction     ... off
Angular grids for H and He will be reduced by one unit
Diffuse basis detected: some atoms will have their outermost
                        angular grid increased by 1.

Total number of grid points                  ...    65819
Total number of batches                      ...      541
Average number of points per batch           ...      121
Average number of grid points per atom       ...     1291
UseSFitting                                  ... on

GRIDX 3
-------
General Integration Accuracy     IntAcc      ... 4.338
Radial Grid Type                 RadialGrid  ... OptM3 with GC (2021)
Angular Grid (max. ang.)         AngularGrid ... 3 (Lebedev-194)
Angular grid pruning method      GridPruning ... 4 (adaptive)
Weight generation scheme         WeightScheme... mBecke (2022)
Basis function cutoff            BFCut       ... 1.0000e-11
Integration weight cutoff        WCut        ... 1.0000e-14
Partially contracted basis set               ... on
Rotationally invariant grid construction     ... off
Angular grids for H and He will be reduced by one unit
Diffuse basis detected: some atoms will have their outermost
                        angular grid increased by 1.

Total number of grid points                  ...   142427
Total number of batches                      ...     1140
Average number of points per batch           ...      124
Average number of grid points per atom       ...     2793
UseSFitting                                  ... on
Grids setup in   5.6 sec
Initializing property integral containers    ... done (  0.0 sec)

SHARK setup successfully completed in   7.2 seconds

Maximum memory used throughout the entire STARTUP-calculation: 85.4 MB


           ************************************************************
           *        Program running with 8 parallel MPI-processes     *
           *              working on a common directory               *
           ************************************************************
-------------------------------------------------------------------------------
                                 ORCA GUESS
                   Start orbitals & Density for SCF / CASSCF
-------------------------------------------------------------------------------

------------
SCF SETTINGS
------------
Hamiltonian:
 Density Functional     Method          .... DFT(GTOs)
 Exchange Functional    Exchange        .... WB97X-D3
 Correlation Functional Correlation     .... WB97X-D3
 Gradients option       PostSCFGGA      .... off
 Hybrid DFT is turned on
   Fraction HF Exchange ScalHFX         ....  0.195728
   Scaling of DF-GGA-X  ScalDFX         ....  0.000000
   Scaling of DF-GGA-C  ScalDFC         ....  1.000000
   Scaling of DF-LDA-C  ScalLDAC        ....  1.000000
   Perturbative correction              ....  0.000000
 Long-range corrected/Screened/Range-Separated Hybrid DFT is turned on
   Amount of maximum screened exact exchange              ....  0.804272
   Range separation parameter mu (erf(mu*r12)/r12)        ....  0.250000
 RI-approximation to the Coulomb term is turned on
   Number of AuxJ basis functions       .... 1475
   RIJ-COSX (HFX calculated with COS-X)).... on


General Settings:
 Integral files         IntName         .... input
 Hartree-Fock type      HFTyp           .... RHF
 Total Charge           Charge          ....    0
 Multiplicity           Mult            ....    1
 Number of Electrons    NEL             ....  184
 Basis Dimension        Dim             ....  571
 Nuclear Repulsion      ENuc            ....   2331.5891048720 Eh

Convergence Acceleration:
 AO-DIIS                CNVDIIS         .... on
   Start iteration      DIISMaxIt       ....    12
   Startup error        DIISStart       ....  0.200000
   # of expansion vecs  DIISMaxEq       ....     5
   Bias factor          DIISBfac        ....   1.050
   Max. coefficient     DIISMaxC        ....  10.000
 MO-DIIS                CNVKDIIS        .... off
 Trust-Rad. Augm. Hess. CNVTRAH         .... auto
   Auto Start mean grad. ratio tolernc. ....  1.125000
   Auto Start start iteration           ....    50
   Auto Start num. interpolation iter.  ....    10
   Max. Number of Micro iterations      ....    24
   Max. Number of Macro iterations      .... Maxiter - #DIIS iter
   Number of Davidson start vectors     ....     2
   Converg. threshold    (grad. norm)   ....   1.000e-05
   Grad. Scal. Fac. for Micro threshold ....   0.100
   Minimum threshold for Micro iter.    ....   1.000e-02
   NR start threshold (gradient norm)   ....   1.000e-04
   Initial trust radius                 ....   0.400
   Minimum AH scaling param. (alpha)    ....   1.000
   Maximum AH scaling param. (alpha)    .... 1000.000
   Quad. conv. algorithm                .... NR
   White noise on init. David. guess    .... on
   Maximum white noise                  ....   0.010
   Pseudo random numbers                .... off
   Inactive MOs                         .... canonical
   Orbital update algorithm             .... Taylor
   Preconditioner                       .... Diag
   Full preconditioner red. dimension   ....   250
 SOSCF                 CNVSOSCF           .... on
   Start iteration     SOSCFMaxIt         ....   150
   Startup grad/error  SOSCFStart         ....  0.003300
   Hessian update      SOSCFHessUp        .... L-BFGS
   Autom. constraints  SOSCFAutoConstrain .... off
 Level Shifting         CNVShift        .... on
   Level shift para.    LevelShift      ....    0.2500
   Turn off err/grad.   ShiftErr        ....    0.0010
 Zerner damping         CNVZerner       .... off
 Static damping         CNVDamp         .... on
   Fraction old density DampFac         ....    0.7000
   Max. Damping (<1)    DampMax         ....    0.9800
   Min. Damping (>=0)   DampMin         ....    0.0000
   Turn off err/grad.   DampErr         ....    0.1000

SCF Procedure:
 Maximum # iterations   MaxIter         ....   125
 SCF integral mode      SCFMode         .... Direct
   Integral package                     .... SHARK and LIBINT hybrid scheme
 Reset frequency        DirectResetFreq ....    20
 Integral Threshold     Thresh          ....  1.000e-12 Eh
 Primitive CutOff       TCut            ....  1.000e-13 Eh

Convergence Tolerance:
 Convergence Check Mode ConvCheckMode   .... Total+1el-Energy
 Convergence forced     ConvForced      .... 0
 Energy Change          TolE            ....  1.000e-08 Eh
 1-El. energy change                    ....  1.000e-05 Eh
 Orbital Gradient       TolG            ....  1.000e-05
 Orbital Rotation angle TolX            ....  1.000e-05
 DIIS Error             TolErr          ....  5.000e-07

------------------------------
INITIAL GUESS: MODEL POTENTIAL
------------------------------
Loading Hartree-Fock densities                     ... done
Calculating cut-offs                               ... done
Initializing the effective Hamiltonian             ... done
Setting up the integral package (SHARK)            ... done
Starting the Coulomb interaction                   ... done (   0.9 sec)
Making the grid                                    ... done (   0.7 sec)
Mapping shells                                     ... done
Starting the XC term evaluation                    ... done (   0.5 sec)
  promolecular density results
     # of electrons  =    183.990334982
     EX              =   -155.491917002
     EC              =     -6.229257967
     EX+EC           =   -161.721174970
Transforming the Hamiltonian                       ... done (   0.0 sec)
Diagonalizing the Hamiltonian                      ... done (   0.1 sec)
Back transforming the eigenvectors                 ... done (   0.0 sec)
Now organizing SCF variables                       ... done
                      ------------------
                      INITIAL GUESS DONE (   2.4 sec)
                      ------------------
             **** ENERGY FILE WAS UPDATED (input.en.tmp) ****
Finished Guess after   3.2 sec
Maximum memory used throughout the entire GUESS-calculation: 50.9 MB


           ************************************************************
           *        Program running with 8 parallel MPI-processes     *
           *              working on a common directory               *
           ************************************************************

-------------------------------------------------------------------------------------------
                                      ORCA LEAN-SCF
                              memory conserving SCF solver
-------------------------------------------------------------------------------------------

----------------------------------------D-I-I-S--------------------------------------------
Iteration    Energy (Eh)           Delta-E    RMSDP     MaxDP     DIISErr   Damp  Time(sec)
-------------------------------------------------------------------------------------------
               ***  Starting incremental Fock matrix formation  ***
    1    -1354.4446374575954906     0.00e+00  4.14e-02  1.90e+00  1.94e-01  0.700  40.6
    2    -1354.7072709474105068    -2.63e-01  3.23e-02  1.68e+00  9.86e-02  0.700  19.8
                               ***Turning on AO-DIIS***
    3    -1354.8413619960265351    -1.34e-01  2.50e-02  1.27e+00  4.97e-02  0.700  19.3
    4    -1354.9207923606245458    -7.94e-02  6.40e-02  3.40e+00  3.09e-02  0.000  18.8
    5    -1355.0916569947803509    -1.71e-01  9.37e-03  6.06e-01  4.05e-03  0.000  19.6
                              *** Initializing SOSCF ***
---------------------------------------S-O-S-C-F--------------------------------------
Iteration    Energy (Eh)           Delta-E    RMSDP     MaxDP     MaxGrad    Time(sec)
--------------------------------------------------------------------------------------
    6    -1355.0922943767282050    -6.37e-04  4.43e-03  2.40e-01  2.66e-03    18.0
               *** Restarting incremental Fock matrix formation ***
    7    -1355.0925608198863301    -2.66e-04  2.87e-03  1.69e-01  2.74e-03    40.3
    8    -1355.0926864787065824    -1.26e-04  2.91e-03  1.24e-01  1.06e-03    32.5
    9    -1355.0927183620328833    -3.19e-05  1.08e-03  6.06e-02  4.33e-04    33.0
   10    -1355.0927341212409374    -1.58e-05  3.09e-04  1.49e-02  1.42e-04    31.5
   11    -1355.0927348277855344    -7.07e-07  9.50e-05  3.57e-03  2.57e-05    28.6
   12    -1355.0927349433586642    -1.16e-07  5.14e-05  1.67e-03  2.59e-05    26.1
   13    -1355.0927349799667354    -3.66e-08  6.03e-05  2.18e-03  4.29e-06    24.6
   14    -1355.0927349588200741     2.11e-08  4.98e-05  2.12e-03  2.74e-06    23.3
   15    -1355.0927349412445437     1.76e-08  8.08e-05  4.83e-03  1.07e-06    21.8
                  *** Gradient check signals convergence ***

               *****************************************************
               *                     SUCCESS                       *
               *           SCF CONVERGED AFTER  15 CYCLES          *
               *****************************************************

Recomputing exchange energy using gridx3       ... done (   75.646 sec)
Old exchange energy                            :    -50.806690349 Eh
New exchange energy                            :    -50.806782324 Eh
Exchange energy change after final integration :     -0.000091975 Eh
Total energy after final integration           :  -1355.092826947 Eh
             **** ENERGY FILE WAS UPDATED (input.en.tmp) ****

----------------
TOTAL SCF ENERGY
----------------

Total Energy       :      -1355.09282694715057 Eh          -36873.95046 eV

Components:
Nuclear Repulsion  :       2331.58910487198455 Eh           63445.76506 eV
Electronic Energy  :      -3686.68183984375491 Eh         -100319.71302 eV
One Electron Energy:      -6484.83215351712442 Eh         -176461.25401 eV
Two Electron Energy:       2798.15031367336951 Eh           76141.54100 eV

Virial components:
Potential Energy   :      -2702.74881524564444 Eh          -73545.53425 eV
Kinetic Energy     :       1347.65598829849409 Eh           36671.58379 eV
Virial Ratio       :          2.00551835090945

DFT components:
N(Alpha)           :       91.999847814974 electrons
N(Beta)            :       91.999847814974 electrons
N(Total)           :      183.999695629947 electrons
E(XC)              :     -114.876905956232 Eh       

---------------
SCF CONVERGENCE
---------------

  Last Energy change         ...   -1.7576e-08  Tolerance :   1.0000e-08
  Last MAX-Density change    ...    4.8307e-03  Tolerance :   1.0000e-07
  Last RMS-Density change    ...    8.0763e-05  Tolerance :   5.0000e-09
  Last DIIS Error            ...    2.6616e-03  Tolerance :   5.0000e-07
  Last Orbital Gradient      ...    1.0695e-06  Tolerance :   1.0000e-05
  Last Orbital Rotation      ...    4.4795e-06  Tolerance :   1.0000e-05


----------------
ORBITAL ENERGIES
----------------

  NO   OCC          E(Eh)            E(eV) 
   0   2.0000     -89.005678     -2421.9676 
   1   2.0000     -19.252424      -523.8851 
   2   2.0000     -19.249924      -523.8171 
   3   2.0000     -14.430010      -392.6605 
   4   2.0000     -10.353306      -281.7278 
   5   2.0000     -10.352869      -281.7159 
   6   2.0000     -10.350780      -281.6590 
   7   2.0000     -10.327473      -281.0248 
   8   2.0000     -10.315495      -280.6989 
   9   2.0000     -10.312079      -280.6059 
  10   2.0000     -10.308758      -280.5156 
  11   2.0000     -10.302432      -280.3434 
  12   2.0000     -10.294863      -280.1375 
  13   2.0000     -10.280940      -279.7586 
  14   2.0000     -10.280483      -279.7462 
  15   2.0000     -10.280301      -279.7412 
  16   2.0000     -10.278533      -279.6931 
  17   2.0000     -10.275729      -279.6168 
  18   2.0000     -10.275727      -279.6167 
  19   2.0000     -10.273835      -279.5653 
  20   2.0000     -10.273321      -279.5513 
  21   2.0000     -10.256074      -279.0820 
  22   2.0000      -8.098066      -220.3596 
  23   2.0000      -6.900686      -187.7772 
  24   2.0000      -6.815921      -185.4706 
  25   2.0000      -6.052216      -164.6892 
  26   2.0000      -6.047520      -164.5614 
  27   2.0000      -6.045883      -164.5168 
  28   2.0000      -1.182700       -32.1829 
  29   2.0000      -1.111623       -30.2488 
  30   2.0000      -1.045380       -28.4462 
  31   2.0000      -1.021379       -27.7931 
  32   2.0000      -0.950028       -25.8516 
  33   2.0000      -0.927613       -25.2416 
  34   2.0000      -0.873573       -23.7711 
  35   2.0000      -0.868194       -23.6248 
  36   2.0000      -0.865253       -23.5447 
  37   2.0000      -0.845665       -23.0117 
  38   2.0000      -0.844589       -22.9824 
  39   2.0000      -0.824342       -22.4315 
  40   2.0000      -0.814868       -22.1737 
  41   2.0000      -0.794780       -21.6271 
  42   2.0000      -0.749802       -20.4031 
  43   2.0000      -0.739200       -20.1147 
  44   2.0000      -0.707784       -19.2598 
  45   2.0000      -0.692822       -18.8527 
  46   2.0000      -0.685247       -18.6465 
  47   2.0000      -0.670171       -18.2363 
  48   2.0000      -0.658759       -17.9257 
  49   2.0000      -0.648418       -17.6444 
  50   2.0000      -0.632888       -17.2217 
  51   2.0000      -0.617654       -16.8072 
  52   2.0000      -0.590569       -16.0702 
  53   2.0000      -0.577145       -15.7049 
  54   2.0000      -0.567771       -15.4498 
  55   2.0000      -0.563934       -15.3454 
  56   2.0000      -0.556869       -15.1532 
  57   2.0000      -0.552028       -15.0214 
  58   2.0000      -0.547119       -14.8879 
  59   2.0000      -0.542812       -14.7707 
  60   2.0000      -0.526992       -14.3402 
  61   2.0000      -0.520435       -14.1618 
  62   2.0000      -0.513778       -13.9806 
  63   2.0000      -0.511740       -13.9251 
  64   2.0000      -0.503980       -13.7140 
  65   2.0000      -0.501684       -13.6515 
  66   2.0000      -0.496582       -13.5127 
  67   2.0000      -0.495745       -13.4899 
  68   2.0000      -0.490065       -13.3353 
  69   2.0000      -0.482518       -13.1300 
  70   2.0000      -0.474098       -12.9009 
  71   2.0000      -0.472918       -12.8688 
  72   2.0000      -0.469949       -12.7880 
  73   2.0000      -0.465648       -12.6709 
  74   2.0000      -0.462520       -12.5858 
  75   2.0000      -0.461260       -12.5515 
  76   2.0000      -0.453640       -12.3442 
  77   2.0000      -0.449178       -12.2227 
  78   2.0000      -0.447792       -12.1851 
  79   2.0000      -0.443300       -12.0628 
  80   2.0000      -0.436633       -11.8814 
  81   2.0000      -0.430647       -11.7185 
  82   2.0000      -0.420842       -11.4517 
  83   2.0000      -0.401031       -10.9126 
  84   2.0000      -0.391319       -10.6483 
  85   2.0000      -0.377591       -10.2748 
  86   2.0000      -0.365631        -9.9493 
  87   2.0000      -0.358246        -9.7484 
  88   2.0000      -0.346009        -9.4154 
  89   2.0000      -0.335315        -9.1244 
  90   2.0000      -0.313176        -8.5219 
  91   2.0000      -0.279780        -7.6132 
  92   0.0000      -0.010146        -0.2761 
  93   0.0000       0.053906         1.4669 
  94   0.0000       0.059061         1.6071 
  95   0.0000       0.067506         1.8369 
  96   0.0000       0.069305         1.8859 
  97   0.0000       0.071906         1.9567 
  98   0.0000       0.077018         2.0958 
  99   0.0000       0.079672         2.1680 
 100   0.0000       0.079870         2.1734 
 101   0.0000       0.082475         2.2443 
 102   0.0000       0.084438         2.2977 
*Only the first 10 virtual orbitals were printed.

                    ********************************
                    * MULLIKEN POPULATION ANALYSIS *
                    ********************************

-----------------------
MULLIKEN ATOMIC CHARGES
-----------------------
   0 C :   -0.611825
   1 C :   -0.326936
   2 C :    0.007626
   3 C :   -0.133909
   4 C :   -0.105541
   5 C :   -0.036411
   6 H :    0.138337
   7 H :    0.142937
   8 H :    0.145899
   9 H :    0.134301
  10 N :   -0.020566
  11 B :   -0.070112
  12 H :    0.170421
  13 H :    0.161250
  14 H :    0.173547
  15 C :   -0.433445
  16 H :    0.161787
  17 H :    0.164607
  18 H :    0.172129
  19 C :   -0.281553
  20 H :    0.168527
  21 H :    0.162422
  22 H :    0.168818
  23 C :   -0.819132
  24 C :    0.415883
  25 C :   -0.337698
  26 H :   -0.031154
  27 H :   -0.079411
  28 C :   -0.062754
  29 C :   -0.438134
  30 O :   -0.441804
  31 O :   -0.421059
  32 B :    1.219221
  33 C :   -0.417961
  34 H :    0.166562
  35 H :    0.169784
  36 H :    0.161228
  37 C :   -0.308144
  38 H :    0.197443
  39 C :   -0.117481
  40 H :    0.168050
  41 H :    0.197148
  42 S :    0.237422
  43 C :   -0.150639
  44 H :    0.134486
  45 H :    0.140302
  46 H :    0.163909
  47 C :   -0.233037
  48 H :    0.145791
  49 H :    0.134550
  50 H :    0.154322
Sum of atomic charges:    0.0000000

--------------------------------
MULLIKEN REDUCED ORBITAL CHARGES
--------------------------------
  0 C s       :     3.830571  s :     3.830571
      pz      :     1.037338  p :     2.722981
      px      :     0.822208
      py      :     0.863435
      dz2     :     0.005827  d :     0.058272
      dxz     :     0.008423
      dyz     :     0.011108
      dx2y2   :     0.017729
      dxy     :     0.015185

  1 C s       :     3.251100  s :     3.251100
      pz      :     0.892969  p :     3.043592
      px      :     1.051418
      py      :     1.099205
      dz2     :     0.004032  d :     0.032244
      dxz     :     0.005462
      dyz     :     0.004476
      dx2y2   :     0.007464
      dxy     :     0.010811

  2 C s       :     2.842336  s :     2.842336
      pz      :     0.860190  p :     3.113377
      px      :     1.147698
      py      :     1.105489
      dz2     :     0.004169  d :     0.036661
      dxz     :     0.003840
      dyz     :     0.006685
      dx2y2   :     0.010578
      dxy     :     0.011389

  3 C s       :     3.127195  s :     3.127195
      pz      :     1.033627  p :     2.971551
      px      :     0.968081
      py      :     0.969843
      dz2     :     0.002902  d :     0.035163
      dxz     :     0.004820
      dyz     :     0.006525
      dx2y2   :     0.009849
      dxy     :     0.011067

  4 C s       :     3.066438  s :     3.066438
      pz      :     0.974499  p :     3.003007
      px      :     0.932315
      py      :     1.096193
      dz2     :     0.004836  d :     0.036096
      dxz     :     0.006603
      dyz     :     0.003804
      dx2y2   :     0.011914
      dxy     :     0.008939

  5 C s       :     2.954276  s :     2.954276
      pz      :     1.015735  p :     3.048245
      px      :     1.058887
      py      :     0.973623
      dz2     :     0.003952  d :     0.033890
      dxz     :     0.003868
      dyz     :     0.006212
      dx2y2   :     0.009425
      dxy     :     0.010433

  6 H s       :     0.849351  s :     0.849351
      pz      :     0.002737  p :     0.012312
      px      :     0.006121
      py      :     0.003455

  7 H s       :     0.844807  s :     0.844807
      pz      :     0.003699  p :     0.012255
      px      :     0.005410
      py      :     0.003146

  8 H s       :     0.841899  s :     0.841899
      pz      :     0.002764  p :     0.012202
      px      :     0.002026
      py      :     0.007412

  9 H s       :     0.853047  s :     0.853047
      pz      :     0.003116  p :     0.012652
      px      :     0.006178
      py      :     0.003359

 10 N s       :     3.158736  s :     3.158736
      pz      :     1.287547  p :     3.821571
      px      :     1.178875
      py      :     1.355149
      dz2     :     0.006155  d :     0.040259
      dxz     :     0.010459
      dyz     :     0.008308
      dx2y2   :     0.005519
      dxy     :     0.009819

 11 B s       :     3.048133  s :     3.048133
      pz      :     0.307623  p :     1.975028
      px      :     0.831435
      py      :     0.835971
      dz2     :     0.011207  d :     0.046951
      dxz     :     0.005653
      dyz     :     0.005558
      dx2y2   :     0.011546
      dxy     :     0.012987

 12 H s       :     0.818239  s :     0.818239
      pz      :     0.002314  p :     0.011340
      px      :     0.003637
      py      :     0.005389

 13 H s       :     0.827355  s :     0.827355
      pz      :     0.002883  p :     0.011395
      px      :     0.006176
      py      :     0.002335

 14 H s       :     0.814682  s :     0.814682
      pz      :     0.003131  p :     0.011770
      px      :     0.003394
      py      :     0.005245

 15 C s       :     3.303945  s :     3.303945
      pz      :     1.043971  p :     3.099222
      px      :     0.988738
      py      :     1.066513
      dz2     :     0.008331  d :     0.030279
      dxz     :     0.005820
      dyz     :     0.003796
      dx2y2   :     0.004193
      dxy     :     0.008139

 16 H s       :     0.826855  s :     0.826855
      pz      :     0.002266  p :     0.011358
      px      :     0.005331
      py      :     0.003762

 17 H s       :     0.824015  s :     0.824015
      pz      :     0.002721  p :     0.011378
      px      :     0.002593
      py      :     0.006063

 18 H s       :     0.816379  s :     0.816379
      pz      :     0.006247  p :     0.011492
      px      :     0.002918
      py      :     0.002327

 19 C s       :     3.189570  s :     3.189570
      pz      :     0.925780  p :     3.061750
      px      :     1.038319
      py      :     1.097651
      dz2     :     0.007465  d :     0.030233
      dxz     :     0.006557
      dyz     :     0.004532
      dx2y2   :     0.005777
      dxy     :     0.005903

 20 H s       :     0.820160  s :     0.820160
      pz      :     0.002488  p :     0.011314
      px      :     0.002309
      py      :     0.006517

 21 H s       :     0.826221  s :     0.826221
      pz      :     0.002194  p :     0.011357
      px      :     0.005724
      py      :     0.003439

 22 H s       :     0.819774  s :     0.819774
      pz      :     0.003997  p :     0.011408
      px      :     0.004338
      py      :     0.003073

 23 C s       :     3.388856  s :     3.388856
      pz      :     1.124574  p :     3.398155
      px      :     1.121176
      py      :     1.152405
      dz2     :     0.003800  d :     0.032120
      dxz     :     0.004226
      dyz     :     0.009171
      dx2y2   :     0.006422
      dxy     :     0.008501

 24 C s       :     2.713667  s :     2.713667
      pz      :     0.941293  p :     2.832306
      px      :     0.892630
      py      :     0.998383
      dz2     :     0.008977  d :     0.038144
      dxz     :     0.005516
      dyz     :     0.007873
      dx2y2   :     0.006995
      dxy     :     0.008782

 25 C s       :     3.300483  s :     3.300483
      pz      :     1.043203  p :     3.002176
      px      :     0.975814
      py      :     0.983159
      dz2     :     0.005747  d :     0.035039
      dxz     :     0.005261
      dyz     :     0.008953
      dx2y2   :     0.007852
      dxy     :     0.007226

 26 H s       :     1.024672  s :     1.024672
      pz      :     0.000789  p :     0.006482
      px      :     0.003062
      py      :     0.002630

 27 H s       :     1.071861  s :     1.071861
      pz      :     0.002624  p :     0.007549
      px      :     0.003380
      py      :     0.001545

 28 C s       :     3.241486  s :     3.241486
      pz      :     0.974290  p :     2.748926
      px      :     0.795014
      py      :     0.979622
      dz2     :     0.016597  d :     0.072343
      dxz     :     0.014932
      dyz     :     0.009336
      dx2y2   :     0.017368
      dxy     :     0.014110

 29 C s       :     3.535685  s :     3.535685
      pz      :     1.092022  p :     2.829776
      px      :     0.837470
      py      :     0.900284
      dz2     :     0.014606  d :     0.072672
      dxz     :     0.015798
      dyz     :     0.009339
      dx2y2   :     0.014855
      dxy     :     0.018075

 30 O s       :     3.809333  s :     3.809333
      pz      :     1.705717  p :     4.608377
      px      :     1.340504
      py      :     1.562156
      dz2     :     0.003049  d :     0.024095
      dxz     :     0.003793
      dyz     :     0.003816
      dx2y2   :     0.008768
      dxy     :     0.004668

 31 O s       :     3.778491  s :     3.778491
      pz      :     1.765845  p :     4.618759
      px      :     1.254008
      py      :     1.598906
      dz2     :     0.002901  d :     0.023810
      dxz     :     0.002810
      dyz     :     0.003952
      dx2y2   :     0.003947
      dxy     :     0.010200

 32 B s       :     2.307806  s :     2.307806
      pz      :     0.423279  p :     1.324145
      px      :     0.478076
      py      :     0.422790
      dz2     :     0.015001  d :     0.148829
      dxz     :     0.022705
      dyz     :     0.026112
      dx2y2   :     0.041200
      dxy     :     0.043811

 33 C s       :     3.278366  s :     3.278366
      pz      :     1.069811  p :     3.109320
      px      :     1.026990
      py      :     1.012520
      dz2     :     0.009943  d :     0.030275
      dxz     :     0.002761
      dyz     :     0.004415
      dx2y2   :     0.008325
      dxy     :     0.004831

 34 H s       :     0.822064  s :     0.822064
      pz      :     0.002723  p :     0.011374
      px      :     0.003009
      py      :     0.005642

 35 H s       :     0.818743  s :     0.818743
      pz      :     0.007018  p :     0.011473
      px      :     0.002271
      py      :     0.002184

 36 H s       :     0.827413  s :     0.827413
      pz      :     0.002480  p :     0.011359
      px      :     0.006622
      py      :     0.002257

 37 C s       :     3.223473  s :     3.223473
      pz      :     0.899489  p :     3.054603
      px      :     1.059705
      py      :     1.095409
      dz2     :     0.007853  d :     0.030069
      dxz     :     0.004869
      dyz     :     0.005688
      dx2y2   :     0.005440
      dxy     :     0.006219

 38 H s       :     0.790027  s :     0.790027
      pz      :     0.002652  p :     0.012530
      px      :     0.003953
      py      :     0.005925

 39 C s       :     3.032128  s :     3.032128
      pz      :     1.001401  p :     3.048898
      px      :     1.069970
      py      :     0.977527
      dz2     :     0.004853  d :     0.036455
      dxz     :     0.005815
      dyz     :     0.009958
      dx2y2   :     0.006726
      dxy     :     0.009103

 40 H s       :     0.819307  s :     0.819307
      pz      :     0.004275  p :     0.012643
      px      :     0.002710
      py      :     0.005659

 41 H s       :     0.790336  s :     0.790336
      pz      :     0.004877  p :     0.012516
      px      :     0.005388
      py      :     0.002252

 42 S s       :     5.974588  s :     5.974588
      pz      :     3.152889  p :     9.693453
      px      :     3.249021
      py      :     3.291544
      dz2     :     0.018351  d :     0.094537
      dxz     :     0.011875
      dyz     :     0.028377
      dx2y2   :     0.012453
      dxy     :     0.023482

 43 C s       :     3.172506  s :     3.172506
      pz      :     0.983191  p :     2.931467
      px      :     0.964763
      py      :     0.983513
      dz2     :     0.003401  d :     0.046666
      dxz     :     0.014607
      dyz     :     0.012117
      dx2y2   :     0.003967
      dxy     :     0.012574

 44 H s       :     0.854797  s :     0.854797
      pz      :     0.003599  p :     0.010717
      px      :     0.003768
      py      :     0.003350

 45 H s       :     0.848888  s :     0.848888
      pz      :     0.003188  p :     0.010811
      px      :     0.003554
      py      :     0.004068

 46 H s       :     0.824529  s :     0.824529
      pz      :     0.003855  p :     0.011562
      px      :     0.003930
      py      :     0.003777

 47 C s       :     3.230211  s :     3.230211
      pz      :     0.950881  p :     2.955474
      px      :     0.994772
      py      :     1.009821
      dz2     :     0.006247  d :     0.047352
      dxz     :     0.012226
      dyz     :     0.011620
      dx2y2   :     0.002228
      dxy     :     0.015031

 48 H s       :     0.843435  s :     0.843435
      pz      :     0.003632  p :     0.010774
      px      :     0.003351
      py      :     0.003791

 49 H s       :     0.854650  s :     0.854650
      pz      :     0.002799  p :     0.010800
      px      :     0.004144
      py      :     0.003856

 50 H s       :     0.834661  s :     0.834661
      pz      :     0.003689  p :     0.011017
      px      :     0.003695
      py      :     0.003633



                     *******************************
                     * LOEWDIN POPULATION ANALYSIS *
                     *******************************

----------------------
LOEWDIN ATOMIC CHARGES
----------------------
   0 C :   -0.067063
   1 C :   -0.169419
   2 C :   -0.131164
   3 C :   -0.162239
   4 C :   -0.138249
   5 C :   -0.167545
   6 H :    0.163576
   7 H :    0.151928
   8 H :    0.151781
   9 H :    0.164535
  10 N :   -0.422719
  11 B :   -0.169155
  12 H :    0.158386
  13 H :    0.150356
  14 H :    0.159874
  15 C :   -0.306681
  16 H :    0.152683
  17 H :    0.152812
  18 H :    0.157761
  19 C :   -0.305318
  20 H :    0.155922
  21 H :    0.149663
  22 H :    0.159510
  23 C :   -0.355584
  24 C :   -0.059187
  25 C :   -0.200611
  26 H :    0.105714
  27 H :    0.135705
  28 C :   -0.063107
  29 C :   -0.061934
  30 O :   -0.326583
  31 O :   -0.335454
  32 B :    0.018788
  33 C :   -0.305457
  34 H :    0.152729
  35 H :    0.156722
  36 H :    0.152708
  37 C :   -0.312481
  38 H :    0.198800
  39 C :   -0.270745
  40 H :    0.168235
  41 H :    0.169277
  42 S :    0.598784
  43 C :   -0.209948
  44 H :    0.139785
  45 H :    0.141823
  46 H :    0.159537
  47 C :   -0.225451
  48 H :    0.146240
  49 H :    0.135202
  50 H :    0.157257

-------------------------------
LOEWDIN REDUCED ORBITAL CHARGES
-------------------------------
  0 C s       :     2.820962  s :     2.820962
      pz      :     0.966582  p :     3.106069
      px      :     1.036291
      py      :     1.103197
      dz2     :     0.012684  d :     0.140032
      dxz     :     0.018904
      dyz     :     0.024760
      dx2y2   :     0.044998
      dxy     :     0.038685

  1 C s       :     2.858603  s :     2.858603
      pz      :     0.998901  p :     3.229855
      px      :     1.066348
      py      :     1.164606
      dz2     :     0.008376  d :     0.080960
      dxz     :     0.013791
      dyz     :     0.009624
      dx2y2   :     0.021096
      dxy     :     0.028074

  2 C s       :     2.875042  s :     2.875042
      pz      :     0.987099  p :     3.169126
      px      :     1.074122
      py      :     1.107905
      dz2     :     0.008464  d :     0.086996
      dxz     :     0.008348
      dyz     :     0.015149
      dx2y2   :     0.027183
      dxy     :     0.027852

  3 C s       :     2.879632  s :     2.879632
      pz      :     1.014428  p :     3.197482
      px      :     1.080638
      py      :     1.102416
      dz2     :     0.006313  d :     0.085124
      dxz     :     0.009797
      dyz     :     0.014199
      dx2y2   :     0.026167
      dxy     :     0.028648

  4 C s       :     2.880429  s :     2.880429
      pz      :     0.995973  p :     3.171205
      px      :     1.090383
      py      :     1.084849
      dz2     :     0.009749  d :     0.086615
      dxz     :     0.015771
      dyz     :     0.008069
      dx2y2   :     0.028864
      dxy     :     0.024161

  5 C s       :     2.863913  s :     2.863913
      pz      :     1.039166  p :     3.220261
      px      :     1.088739
      py      :     1.092355
      dz2     :     0.008164  d :     0.083372
      dxz     :     0.008628
      dyz     :     0.014482
      dx2y2   :     0.025293
      dxy     :     0.026804

  6 H s       :     0.795724  s :     0.795724
      pz      :     0.007883  p :     0.040700
      px      :     0.021312
      py      :     0.011505

  7 H s       :     0.807236  s :     0.807236
      pz      :     0.011236  p :     0.040836
      px      :     0.018795
      py      :     0.010806

  8 H s       :     0.807675  s :     0.807675
      pz      :     0.007790  p :     0.040544
      px      :     0.006282
      py      :     0.026472

  9 H s       :     0.793918  s :     0.793918
      pz      :     0.008888  p :     0.041547
      px      :     0.021153
      py      :     0.011505

 10 N s       :     3.132867  s :     3.132867
      pz      :     1.404478  p :     4.194434
      px      :     1.333621
      py      :     1.456336
      dz2     :     0.013448  d :     0.095417
      dxz     :     0.025906
      dyz     :     0.019625
      dx2y2   :     0.012862
      dxy     :     0.023577

 11 B s       :     2.701398  s :     2.701398
      pz      :     0.518089  p :     2.358912
      px      :     0.911622
      py      :     0.929201
      dz2     :     0.027540  d :     0.108845
      dxz     :     0.012312
      dyz     :     0.012912
      dx2y2   :     0.026738
[...]
127:   2635.12   0.020645  104.33  0.002445  (-0.038943  0.027158 -0.013811)
128:   2977.02   0.016138   81.55  0.001692  ( 0.029514  0.027080 -0.009341)
129:   2986.52   0.031587  159.63  0.003301  (-0.050419 -0.007656 -0.026456)
130:   3079.27   0.001666    8.42  0.000169  (-0.002491 -0.001265  0.012692)
131:   3082.57   0.004495   22.71  0.000455  (-0.007417 -0.009974 -0.017335)
132:   3083.74   0.002574   13.01  0.000260  ( 0.011077 -0.010198  0.005813)
133:   3087.66   0.006219   31.43  0.000628  ( 0.021014  0.010241 -0.009056)
134:   3095.53   0.007433   37.56  0.000749  ( 0.006339 -0.011086 -0.024213)
135:   3107.13   0.006842   34.58  0.000687  ( 0.010962 -0.021599 -0.010026)
136:   3160.42   0.004310   21.78  0.000426  ( 0.016910 -0.010568  0.005282)
137:   3162.71   0.000737    3.73  0.000073  (-0.000995 -0.008420  0.000925)
138:   3163.74   0.001912    9.66  0.000189  (-0.003322  0.013307 -0.000669)
139:   3168.89   0.002900   14.66  0.000286  (-0.015901  0.003793  0.004290)
140:   3171.96   0.004078   20.61  0.000401  (-0.014192  0.014081 -0.001237)
141:   3173.26   0.008411   42.51  0.000827  (-0.024459 -0.014623  0.003889)
142:   3177.77   0.005038   25.46  0.000495  (-0.002866  0.022026 -0.001183)
143:   3188.08   0.003207   16.20  0.000314  (-0.004674 -0.004877  0.016378)
144:   3189.49   0.003866   19.54  0.000378  ( 0.012065  0.002163  0.015100)
145:   3199.55   0.001770    8.95  0.000173  (-0.009041 -0.003024  0.009043)
146:   3206.71   0.000753    3.80  0.000073  ( 0.007411  0.004116 -0.001170)
147:   3215.23   0.002726   13.78  0.000265  ( 0.006081  0.015087  0.000060)
148:   3231.15   0.005940   30.02  0.000574  ( 0.021899  0.000397 -0.009693)
149:   3240.04   0.004835   24.43  0.000466  ( 0.001794 -0.019982 -0.007949)
150:   3263.78   0.000160    0.81  0.000015  ( 0.001508  0.002231 -0.002838)
151:   3276.08   0.000239    1.21  0.000023  (-0.001948 -0.001603  0.004047)
152:   3291.35   0.000104    0.53  0.000010  ( 0.000449  0.002703 -0.001543)

* The epsilon (eps) is given for a Dirac delta lineshape.
** The dipole moment derivative (T) already includes vibrational overlap.

The first frequency considered to be a vibration is 8
The total number of vibrations considered is 145


--------------------------
THERMOCHEMISTRY AT 298.15K
--------------------------

Temperature         ...   298.15 K
Pressure            ...     1.00 atm
Total Mass          ...   343.10 AMU
Quasi RRHO          ...     True
Cut-Off Frequency   ...     1.00 cm^-1

Throughout the following assumptions are being made:
  (1) The electronic state is orbitally nondegenerate
  (2) There are no thermally accessible electronically excited states
  (3) Hindered rotations indicated by low frequency modes are not
      treated as such but are treated as vibrations and this may
      cause some error
  (4) All equations used are the standard statistical mechanics
      equations for an ideal gas
  (5) All vibrations are strictly harmonic

freq.      25.91  E(vib)   ...       0.56 
freq.      40.60  E(vib)   ...       0.54 
freq.      51.65  E(vib)   ...       0.52 
freq.      60.58  E(vib)   ...       0.51 
freq.      81.53  E(vib)   ...       0.48 
freq.     100.59  E(vib)   ...       0.46 
freq.     114.72  E(vib)   ...       0.44 
freq.     127.46  E(vib)   ...       0.43 
freq.     128.91  E(vib)   ...       0.43 
freq.     137.65  E(vib)   ...       0.42 
freq.     162.14  E(vib)   ...       0.39 
freq.     203.70  E(vib)   ...       0.35 
freq.     224.69  E(vib)   ...       0.33 
freq.     234.69  E(vib)   ...       0.32 
freq.     243.06  E(vib)   ...       0.31 
freq.     256.22  E(vib)   ...       0.30 
freq.     267.58  E(vib)   ...       0.29 
freq.     281.30  E(vib)   ...       0.28 
freq.     297.27  E(vib)   ...       0.27 
freq.     302.93  E(vib)   ...       0.26 
freq.     304.58  E(vib)   ...       0.26 
freq.     310.76  E(vib)   ...       0.26 
freq.     316.60  E(vib)   ...       0.25 
freq.     335.39  E(vib)   ...       0.24 
freq.     357.11  E(vib)   ...       0.22 
freq.     371.49  E(vib)   ...       0.21 
freq.     374.01  E(vib)   ...       0.21 
freq.     388.61  E(vib)   ...       0.20 
freq.     400.11  E(vib)   ...       0.19 
freq.     427.37  E(vib)   ...       0.18 
freq.     478.89  E(vib)   ...       0.15 
freq.     485.22  E(vib)   ...       0.15 
freq.     498.68  E(vib)   ...       0.14 
freq.     510.31  E(vib)   ...       0.14 
freq.     531.70  E(vib)   ...       0.13 
freq.     538.04  E(vib)   ...       0.12 
freq.     568.66  E(vib)   ...       0.11 
freq.     578.19  E(vib)   ...       0.11 
freq.     589.67  E(vib)   ...       0.10 
freq.     598.21  E(vib)   ...       0.10 
freq.     605.07  E(vib)   ...       0.10 
freq.     653.42  E(vib)   ...       0.08 
freq.     684.22  E(vib)   ...       0.07 
freq.     734.24  E(vib)   ...       0.06 
freq.     756.72  E(vib)   ...       0.06 
freq.     760.69  E(vib)   ...       0.06 
freq.     764.97  E(vib)   ...       0.06 
freq.     783.06  E(vib)   ...       0.05 
freq.     793.36  E(vib)   ...       0.05 
freq.     799.12  E(vib)   ...       0.05 
freq.     828.05  E(vib)   ...       0.04 
freq.     879.12  E(vib)   ...       0.04 
freq.     895.56  E(vib)   ...       0.03 
freq.     899.92  E(vib)   ...       0.03 
freq.     903.50  E(vib)   ...       0.03 
freq.     909.95  E(vib)   ...       0.03 
freq.     946.42  E(vib)   ...       0.03 
freq.     948.52  E(vib)   ...       0.03 
freq.     953.31  E(vib)   ...       0.03 
freq.     974.77  E(vib)   ...       0.03 
freq.     981.95  E(vib)   ...       0.02 
freq.     986.74  E(vib)   ...       0.02 
freq.     987.88  E(vib)   ...       0.02 
freq.     997.07  E(vib)   ...       0.02 
freq.    1011.64  E(vib)   ...       0.02 
freq.    1014.33  E(vib)   ...       0.02 
freq.    1016.30  E(vib)   ...       0.02 
freq.    1035.08  E(vib)   ...       0.02 
freq.    1085.36  E(vib)   ...       0.02 
freq.    1089.12  E(vib)   ...       0.02 
freq.    1102.16  E(vib)   ...       0.02 
freq.    1113.52  E(vib)   ...       0.01 
freq.    1120.72  E(vib)   ...       0.01 
freq.    1124.66  E(vib)   ...       0.01 
freq.    1141.45  E(vib)   ...       0.01 
freq.    1157.72  E(vib)   ...       0.01 
freq.    1175.86  E(vib)   ...       0.01 
freq.    1186.99  E(vib)   ...       0.01 
freq.    1191.77  E(vib)   ...       0.01 
freq.    1195.62  E(vib)   ...       0.01 
freq.    1204.97  E(vib)   ...       0.01 
freq.    1210.47  E(vib)   ...       0.01 
freq.    1244.52  E(vib)   ...       0.01 
freq.    1255.93  E(vib)   ...       0.01 
freq.    1266.53  E(vib)   ...       0.01 
freq.    1267.87  E(vib)   ...       0.01 
freq.    1288.29  E(vib)   ...       0.01 
freq.    1310.52  E(vib)   ...       0.01 
freq.    1317.65  E(vib)   ...       0.01 
freq.    1336.15  E(vib)   ...       0.01 
freq.    1341.21  E(vib)   ...       0.01 
freq.    1350.75  E(vib)   ...       0.01 
freq.    1373.53  E(vib)   ...       0.01 
freq.    1389.95  E(vib)   ...       0.00 
freq.    1414.92  E(vib)   ...       0.00 
freq.    1418.20  E(vib)   ...       0.00 
freq.    1425.52  E(vib)   ...       0.00 
freq.    1435.08  E(vib)   ...       0.00 
freq.    1450.37  E(vib)   ...       0.00 
freq.    1476.49  E(vib)   ...       0.00 
freq.    1478.28  E(vib)   ...       0.00 
freq.    1481.42  E(vib)   ...       0.00 
freq.    1488.47  E(vib)   ...       0.00 
freq.    1488.71  E(vib)   ...       0.00 
freq.    1489.97  E(vib)   ...       0.00 
freq.    1493.97  E(vib)   ...       0.00 
freq.    1494.56  E(vib)   ...       0.00 
freq.    1503.49  E(vib)   ...       0.00 
freq.    1507.17  E(vib)   ...       0.00 
freq.    1509.66  E(vib)   ...       0.00 
freq.    1513.95  E(vib)   ...       0.00 
freq.    1516.67  E(vib)   ...       0.00 
freq.    1528.80  E(vib)   ...       0.00 
freq.    1531.59  E(vib)   ...       0.00 
freq.    1544.46  E(vib)   ...       0.00 
freq.    1561.49  E(vib)   ...       0.00 
freq.    1659.77  E(vib)   ...       0.00 
freq.    1683.79  E(vib)   ...       0.00 
freq.    2506.52  E(vib)   ...       0.00 
freq.    2635.12  E(vib)   ...       0.00 
freq.    2977.02  E(vib)   ...       0.00 
freq.    2986.52  E(vib)   ...       0.00 
freq.    3079.27  E(vib)   ...       0.00 
freq.    3082.57  E(vib)   ...       0.00 
freq.    3083.74  E(vib)   ...       0.00 
freq.    3087.66  E(vib)   ...       0.00 
freq.    3095.53  E(vib)   ...       0.00 
freq.    3107.13  E(vib)   ...       0.00 
freq.    3160.42  E(vib)   ...       0.00 
freq.    3162.71  E(vib)   ...       0.00 
freq.    3163.74  E(vib)   ...       0.00 
freq.    3168.89  E(vib)   ...       0.00 
freq.    3171.96  E(vib)   ...       0.00 
freq.    3173.26  E(vib)   ...       0.00 
freq.    3177.77  E(vib)   ...       0.00 
freq.    3188.08  E(vib)   ...       0.00 
freq.    3189.49  E(vib)   ...       0.00 
freq.    3199.55  E(vib)   ...       0.00 
freq.    3206.71  E(vib)   ...       0.00 
freq.    3215.23  E(vib)   ...       0.00 
freq.    3231.15  E(vib)   ...       0.00 
freq.    3240.04  E(vib)   ...       0.00 
freq.    3263.78  E(vib)   ...       0.00 
freq.    3276.08  E(vib)   ...       0.00 
freq.    3291.35  E(vib)   ...       0.00 

------------
INNER ENERGY
------------

The inner energy is: U= E(el) + E(ZPE) + E(vib) + E(rot) + E(trans)
    E(el)   - is the total energy from the electronic structure calculation
              = E(kin-el) + E(nuc-el) + E(el-el) + E(nuc-nuc)
    E(ZPE)  - the the zero temperature vibrational energy from the frequency calculation
    E(vib)  - the the finite temperature correction to E(ZPE) due to population
              of excited vibrational states
    E(rot)  - is the rotational thermal energy
    E(trans)- is the translational thermal energy

Summary of contributions to the inner energy U:
Electronic energy                ...  -1355.12467070 Eh
Zero point energy                ...      0.43028476 Eh     270.01 kcal/mol
Thermal vibrational correction   ...      0.02046096 Eh      12.84 kcal/mol
Thermal rotational correction    ...      0.00141627 Eh       0.89 kcal/mol
Thermal translational correction ...      0.00141627 Eh       0.89 kcal/mol
-----------------------------------------------------------------------
Total thermal energy                  -1354.67109244 Eh


Summary of corrections to the electronic energy:
(perhaps to be used in another calculation)
Total thermal correction                  0.02329350 Eh      14.62 kcal/mol
Non-thermal (ZPE) correction              0.43028476 Eh     270.01 kcal/mol
-----------------------------------------------------------------------
Total correction                          0.45357826 Eh     284.62 kcal/mol


--------
ENTHALPY
--------

The enthalpy is H = U + kB*T
                kB is Boltzmann's constant
Total thermal energy              ...  -1354.67109244 Eh 
Thermal Enthalpy correction       ...      0.00094421 Eh       0.59 kcal/mol
-----------------------------------------------------------------------
Total Enthalpy                    ...  -1354.67014823 Eh


Note: Only C1 symmetry has been detected, increase convergence thresholds 
      if your molecule has a higher symmetry. Symmetry factor of 1.0 is   
      used for the rotational entropy correction. 
 

Note: Rotational entropy computed according to Herzberg 
Infrared and Raman Spectra, Chapter V,1, Van Nostrand Reinhold, 1945 
Point Group:  C1, Symmetry Number:   1  
Rotational constants in cm-1:     0.011818     0.005670     0.004589 

Vibrational entropy computed according to the QRRHO of S. Grimme
Chem.Eur.J. 2012 18 9955 using a reference frequency of 100.0 cm-1


-------
ENTROPY
-------

The entropy contributions are T*S = T*(S(el)+S(vib)+S(rot)+S(trans))
     S(el)   - electronic entropy
     S(vib)  - vibrational entropy
     S(rot)  - rotational entropy
     S(trans)- translational entropy
The entropies will be listed as multiplied by the temperature to get
units of energy

Electronic entropy                ...      0.00000000 Eh      0.00 kcal/mol
Vibrational entropy               ...      0.03530780 Eh     22.16 kcal/mol
Rotational entropy                ...      0.01658975 Eh     10.41 kcal/mol
Translational entropy             ...      0.02061729 Eh     12.94 kcal/mol
-----------------------------------------------------------------------
Final entropy term                ...      0.07251484 Eh     45.50 kcal/mol

In case the symmetry of your molecule has not been determined correctly
or in case you have a reason to use a different symmetry number we print 
out the resulting rotational entropy values for sn=1,12:

 non-linear molecules -----------------------------------
|  sn= 1 | S(rot)=       0.01658975 Eh     10.41 kcal/mol|
|  sn= 2 | S(rot)=       0.01593529 Eh     10.00 kcal/mol|
|  sn= 3 | S(rot)=       0.01555246 Eh      9.76 kcal/mol|
|  sn= 4 | S(rot)=       0.01528083 Eh      9.59 kcal/mol|
|  sn= 5 | S(rot)=       0.01507015 Eh      9.46 kcal/mol|
|  sn= 6 | S(rot)=       0.01489800 Eh      9.35 kcal/mol|
|  sn= 7 | S(rot)=       0.01475246 Eh      9.26 kcal/mol|
|  sn= 8 | S(rot)=       0.01462638 Eh      9.18 kcal/mol|
|  sn= 9 | S(rot)=       0.01451517 Eh      9.11 kcal/mol|
|  sn=10 | S(rot)=       0.01441569 Eh      9.05 kcal/mol|
|  sn=11 | S(rot)=       0.01432570 Eh      8.99 kcal/mol|
|  sn=12 | S(rot)=       0.01424355 Eh      8.94 kcal/mol|
 linear molecules ---------------------------------------
|  Dinfh | S(rot)=       0.01040939 Eh      6.53 kcal/mol|
|  Cinfv | S(rot)=       0.01106384 Eh      6.94 kcal/mol|
 --------------------------------------------------------


-------------------
GIBBS FREE ENERGY
-------------------

The Gibbs free energy is G = H - T*S

Total enthalpy                    ...  -1354.67014823 Eh 
Total entropy correction          ...     -0.07251484 Eh    -45.50 kcal/mol
-----------------------------------------------------------------------
Final Gibbs free energy         ...  -1354.74266307 Eh

For completeness - the Gibbs free energy minus the electronic energy
G-E(el)                           ...      0.38200763 Eh    239.71 kcal/mol

WARNING (PropertyFile): The property 'Hessian' exists multiple times for geometry 1 which is not allowed

Maximum memory used throughout the entire PROP-calculation: 449.2 MB

--------------------------------
SUGGESTED CITATIONS FOR THIS RUN
--------------------------------

Below you find a list of papers that are relevant to this ORCA run
We neither can nor want to force you to cite these papers, but we appreciate if you do
You receive ORCA, which is the product of decades of hard work by many enthusiastic individuals, for free
The only thing we kindly ask in return is that you cite our papers,
We deeply appreciate it, if you show your appreciation for ORCA by not just citing the generic ORCA reference.

Please note that relegating all ORCA citations to the supporting information does *not* help us.
SI sections are not indexed - citations you put there will not count into any citation statistics
But we need these citations in order to attract the funding resources that allow us to do what we are doing

Therefore, if you are a happy ORCA user, please consider citing a few of the papers listed below in the main body of your paper

In addition to the list printed below, the program has created the file input.bibtex that contains the list in bibtex format
You can import this file easily into all common literature databanks and citation aid programs


List of essential papers. We consider these as the minimum necessary citations

  1. Neese, F.
     Software update: the ORCA program system, version 6.0
     WIRES Comput. Molec. Sci. 2025 15(1), e70019
     doi.org/10.1002/wcms.7019

List of papers to cite with high priority. The work reported in these papers was absolutely
necessary for this run to complete.
Our perspective: the developers of density functionals and basis sets usually get cited in chemistry papers
Good! But without the algorithms to do something with them, the functionals or basis sets would not do anything.
Hence, in our opinion, the algorithm design and method developments papers are equally worthy of getting cited

  1. Neese, F.
     An improvement of the resolution of the identity approximation for the formation of the Coulomb matrix
     J. Comp. Chem. 2003 24(14), 1740-1747
     doi.org/10.1002/jcc.10318
  2. Neese, F.; Wennmohs, F.; Hansen, A.; Becker, U.
     Efficient, approximate and parallel Hartree-Fock and hybrid DFT calculations. A 'chain-of-spheres' algorithm for the Hartree-Fock exchange
     Chem. Phys. 2009 356(1-3), 98-109
     doi.org/10.1016/j.chemphys.2008.10.036
  3. Grimme, S.; Antony, J.; Ehrlich, S.; Krieg, H.
     A consistent and accurate ab initio parametrization of density functional dispersion correction (DFT-D) for the 94 elements H-Pu
     J. Chem. Phys. 2010 132 , 154104
     doi.org/10.1063/1.3382344
  4. Bykov, D.; Petrenko, T.; Izsak, R.; Kossmann, S.; Becker, U.; Valeev, E.; Neese, F.
     Efficient implementation of the analytic second derivatives of Hartree-Fock and hybrid DFT energies: a detailed analysis of different approximations
     Molec. Phys. 2015 113 , 1961-1977
     doi.org/10.1080/00268976.2015.1025114
  5. Helmich-Paris, B.; de Souza, B.; Neese, F.; Izsák, R.
     An improved chain of spheres for exchange algorithm
     J. Chem. Phys. 2021 155(10), 104109
     doi.org/10.1063/5.0058766
  6. Neese, F.
     The SHARK Integral Generation and Digestion System
     J. Comp. Chem. 2022 44(3), 381
     doi.org/10.1002/jcc.26942

List of suggested additional citations. These are papers that are important in the 'surrounding' of 
of this run, or papers that preceded the highly important papers. If you like your results we are grateful for a citation.

  1. Izsak, R.; Neese, F.
     An overlap fitted chain of spheres exchange method
     J. Chem. Phys. 2011 135 , 144105
     doi.org/10.1063/1.3646921
  2. Izsak, R.; Hansen, A.; Neese, F.
     The resolution of identity and chain of spheres approximations for the LPNO-CCSD singles Fock term
     Molec. Phys. 2012 110 , 2413-2417
     doi.org/10.1080/00268976.2012.687466
  3. Neese, F.
     The ORCA program system
     WIRES Comput. Molec. Sci. 2012 2(1), 73-78
     doi.org/10.1002/wcms.81
  4. Izsak, R.; Neese, F.; Klopper, W.
     Robust fitting techniques in the chain of spheres approximation to the Fock exchange: The role of the complementary space
     J. Chem. Phys. 2013 139 , 
     doi.org/10.1063/1.4819264
  5. Neese, F.
     Software update: the ORCA program system, version 4.0
     WIRES Comput. Molec. Sci. 2018 8(1), 1-6
     doi.org/10.1002/wcms.1327
  6. Neese, F.; Wennmohs, F.; Becker, U.; Riplinger, C.
     The ORCA quantum chemistry program package
     J. Chem. Phys. 2020 152(22), 224108
     doi.org/10.1063/5.0004608
  7. Neese, F.
     Software update: The ORCA program system—Version 5.0
     WIRES Comput. Molec. Sci. 2022 12(1), e1606
     doi.org/10.1002/wcms.1606

List of optional additional citations

  1. Neese, F.
     Approximate second-order SCF convergence for spin unrestricted wavefunctions
     Chem. Phys. Lett. 2000 325(1-3), 93-98
     doi.org/10.1016/s0009-2614(00)00662-x

Timings for individual modules:

Sum of individual times          ...     5180.353 sec (=  86.339 min)
Startup calculation              ...        9.365 sec (=   0.156 min)   0.2 %
SCF iterations                   ...      499.732 sec (=   8.329 min)   9.6 %
Property integrals               ...     1140.527 sec (=  19.009 min)  22.0 %
SCF Response                     ...     1115.809 sec (=  18.597 min)  21.5 %
Property calculations            ...     2414.920 sec (=  40.249 min)  46.6 %
WARNING (JSON): The property 'Hessian' exists multiple times for geometry 1 which is not allowed => overwriting previous entry!
                             ****ORCA TERMINATED NORMALLY****
TOTAL RUN TIME: 0 days 2 hours 44 minutes 8 seconds 30 msec
