
                                 *****************
                                 * O   R   C   A *
                                 *****************

                                            #,                                       
                                            ###                                      
                                            ####                                     
                                            #####                                    
                                            ######                                   
                                           ########,                                 
                                     ,,################,,,,,                         
                               ,,#################################,,                 
                          ,,##########################################,,             
                       ,#########################################, ''#####,          
                    ,#############################################,,   '####,        
                  ,##################################################,,,,####,       
                ,###########''''           ''''###############################       
              ,#####''   ,,,,##########,,,,          '''####'''          '####       
            ,##' ,,,,###########################,,,                        '##       
           ' ,,###''''                  '''############,,,                           
         ,,##''                                '''############,,,,        ,,,,,,###''
      ,#''                                            '''#######################'''  
     '                                                          ''''####''''         
             ,#######,   #######,   ,#######,      ##                                
            ,#'     '#,  ##    ##  ,#'     '#,    #''#        ,####,   ,####,        
            ##       ##  ##   ,#'  ##            #'  '#       #'       #'  '#        
            ##       ##  #######   ##           ,######,      #####,   #    #        
            '#,     ,#'  ##    ##  '#,     ,#' ,#      #,     #,   #   #,  ,#        
             '#######'   ##     ##  '#######'  #'      '#     '####' # '####'        



                #########################################################
                #                        -***-                          #
                #          Department of theory and spectroscopy        #
                #                                                       #
                #                      Frank Neese                      #
                #                                                       #
                #     Directorship, Architecture, Infrastructure        #
                #                    SHARK, DRIVERS                     #
                #        Core code/Algorithms in most modules           #
                #                                                       #
                #        Max Planck Institute fuer Kohlenforschung      #
                #                Kaiser Wilhelm Platz 1                 #
                #                 D-45470 Muelheim/Ruhr                 #
                #                      Germany                          #
                #                                                       #
                #                  All rights reserved                  #
                #                        -***-                          #
                #########################################################


                         Program Version 6.0.1  -  RELEASE   -


 With contributions from (in alphabetic order):
[Max-Planck-Institut fuer Kohlenforschung]                               
  Daniel Aravena         : Magnetic Suceptibility                        
  Michael Atanasov       : Ab Initio Ligand Field Theory (pilot matlab implementation)
  Alexander A. Auer      : GIAO ZORA, VPT2 properties, NMR spectrum      
  Ute Becker             : All parallelization in ORCA, NUMFREQ, NUMCALC 
  Giovanni Bistoni       : ED, misc. LED, open-shell LED, HFLD           
  Martin Brehm           : Molecular dynamics                            
  Dmytro Bykov           : pre 5.0 version of the SCF Hessian            
  Marcos Casanova-Páez   : Triplet and SCS-CIS(D). UHF-(DLPNO)-IP/EA/STEOM-CCSD. UHF-CVS-IP/STEOM-CCSD   
  Vijay G. Chilkuri      : MRCI spin determinant printing, contributions to CSF-ICE 
  Pauline Colinet        : FMM embedding                                 
  Dipayan Datta          : RHF DLPNO-CCSD density                        
  Achintya Kumar Dutta   : EOM-CC, STEOM-CC                              
  Nicolas Foglia         : Exact transition moments, OPA infrastructure, MCD improvements    
  Dmitry Ganyushin       : Spin-Orbit,Spin-Spin,Magnetic field MRCI      
  Miquel Garcia-Rates    : C-PCM and meta-GGA Hessian, CCSD/C-PCM, Gaussian charge scheme 
  Tiago L. C. Gouveia    : GS-ROHF, GS-ROCIS                             
  Yang Guo               : DLPNO-NEVPT2, F12-NEVPT2, CIM, IAO-localization        
  Andreas Hansen         : Spin unrestricted coupled pair/coupled cluster methods 
  Ingolf Harden          : AUTO-CI MPn and infrastructure                
  Benjamin Helmich-Paris : MC-RPA, TRAH-(SCF,CASSCF), AVAS, COSX integrals, SCF dyn. polar. 
  Lee Huntington         : MR-EOM, pCC                                   
  Robert Izsak           : Overlap fitted RIJCOSX, COSX-SCS-MP3, EOM     
  Riya Kayal             : Wick's Theorem for AUTO-CI, AUTO-CI UHF-CCSDT 
  Emily Kempfer          : AUTO-CI, RHF CISDT and CCSDT                  
  Christian Kollmar      : KDIIS, OOCD, Brueckner-CCSD(T), CCSD density, CASPT2, CASPT2-K, improved NEVPT2 
  Axel Koslowski         : Symmetry handling                             
  Simone Kossmann        : meta-GGA functionals, TD-DFT gradient, OOMP2, (MP2 Hessian; deprecated post 5.0) 
  Lucas Lang             : DCDCAS                                        
  Marvin Lechner         : AUTO-CI (C++ implementation), FIC-MRCC        
  Spencer Leger          : CASSCF response                               
  Dagmar Lenk            : GEPOL surface, SMD, ORCA-2-JSON               
  Dimitrios Liakos       : Extrapolation schemes; Compound Job, initial MDCI parallelization 
  Dimitrios Manganas     : Further ROCIS development; embedding schemes. LFT, Crystal Embedding 
  Dimitrios Pantazis     : SARC Basis sets                               
  Anastasios Papadopoulos: AUTO-CI, single reference methods and gradients 
  Taras Petrenko         : pre 6.0 DFT Hessian and TD-DFT gradient, (ASA, deprecated), ECA, 1-Electron XAS/XES, NRVS 
  Peter Pinski           : DLPNO-MP2, DLPNO-MP2 Gradient                 
  Christoph Reimann      : Effective Core Potentials                     
  Marius Retegan         : Local ZFS, SOC                                
  Christoph Riplinger    : Optimizer, TS searches, QM/MM, DLPNO-CCSD(T), (RO)-DLPNO pert. Triples 
  Michael Roemelt        : Original ROCIS implementation                 
  Masaaki Saitow         : Open-shell DLPNO-CCSD energy and density      
  Barbara Sandhoefer     : DKH picture change effects                    
  Kantharuban Sivalingam : CASSCF convergence/infrastructure, NEVPT2 and variants, FIC-MRCI 
  Bernardo de Souza      : ESD, SOC TD-DFT                               
  Georgi L. Stoychev     : AutoAux, RI-MP2 NMR, DLPNO-MP2 response, X2C  
  Van Anh Tran           : RI-MP2 g-tensors                              
  Willem Van den Heuvel  : Paramagnetic NMR                              
  Zikuan Wang            : NOTCH, Electric field optimization            
  Frank Wennmohs         : Technical directorship and infrastructure     
  Hang Xu                : AUTO-CI-Response properties                   
                                                                         
[FACCTs GmbH]                                                            
  Markus Bursch, Miquel Garcia-Rates, Christoph Riplinger, Bernardo de Souza, Georgi L. Stoychev 
                                                                 
  APM, Basis sets (HGBS, AHGBS, def-TZVP (Ac-Lr), def2-XVPD (La-Lu)), CI-OPT, improved COSX, DLPNO-Multilevel,           
  DOCKER, DRACO, updates on ESD, GOAT, IRC, LR-CPCM, MBIS, meta-GGA TD-DFT gradient, ML-optimized integration grids, 
  MM, NACMEs, nearIR, NEB, NEB-TS, NL-DFT gradient (VV10), 2- and 3-layer-ONIOM, interface openCOSMO-RS, QMMM,   
  Crystal-QMMM, SF, symmetry and pop. for TD-DFT, r2SCAN hybrids, SOLVATOR                                   
                                                                         
[Other institutions]                                                     
  V. Asgeirsson          : NEB                                           
  Christoph Bannwarth    : sTDA-DFT, sTD-DFT, PBEh-3c, B97-3c, D3        
  Sebastian Ehlert       : rSCAN, r2SCAN, r2SCAN-3c, D4, dhf basis sets  
  Marvin Friede          : D4 for Fr, Ra, Ac-Lr                          
  Lars Goerigk           : TD-DFT with DH, B97 family of functionals     
  Stefan Grimme          : VdW corrections, initial TS optimization, DFT functionals, gCP, sTDA/sTD-DF 
  Waldemar Hujo          : DFT-NL                                        
  H. Jonsson             : NEB                                           
  Holger Kruse           : gCP                                           
  Marcel Mueller         : wB97X-3c, vDZP basis set                      
  Hagen Neugebauer       : wr2SCAN                                       
  Tobias Risthaus        : range-separated hybrid DFT                    
  Lukas Wittmann         : regularized MP2, r2SCAN double-hybrids, wr2SCAN        
                                                                         
We gratefully acknowledge several colleagues who have allowed us to      
interface, adapt or use parts of their codes:                            
  Ed Valeev, F. Pavosevic, A. Kumar             : LibInt (2-el integral package), F12 methods 
  Garnet Chan, S. Sharma, J. Yang, R. Olivares  : DMRG                   
  Ulf Ekstrom                                   : XCFun DFT Library      
  Mihaly Kallay                                 : mrcc  (arbitrary order and MRCC methods)
  Frank Weinhold                                : gennbo (NPA and NBO analysis)           
  Simon Mueller                                 : openCOSMO-RS                            
  Christopher J. Cramer and Donald G. Truhlar   : smd solvation model                     
  S Lehtola, MJT Oliveira, MAL Marques          : LibXC Library                           
  Liviu Ungur et al                             : ANISO software                          


 Your calculation uses the libint2 library for the computation of 2-el integrals
 For citations please refer to: http://libint.valeyev.net

 Your ORCA version has been built with support for libXC version: 6.2.2
 For citations please refer to: https://libxc.gitlab.io

 This ORCA versions uses:
   CBLAS   interface :  Fast vector & matrix operations
   LAPACKE interface :  Fast linear algebra routines
   SCALAPACK package :  Parallel linear algebra routines
   Shared memory     :  Shared parallel matrices
   BLAS/LAPACK       :  OpenBLAS 0.3.27  USE64BITINT DYNAMIC_ARCH NO_AFFINITY Zen SINGLE_THREADED
        Core in use  :  Zen
   Copyright (c) 2011-2014, The OpenBLAS Project


NOTE: MaxCore=2560 MB was set to SCF,MP2,MDCI,CIPSI,MRCI and CIS
      => If you want to overwrite this, your respective input block should be placed after the MaxCore statement
Your calculation utilizes the atom-pairwise dispersion correction
with the zero-damping scheme (D30)


XCFun DFT library Copyright 2009-2010 Ulf Ekstrom and contributors.
See http://admol.org/xcfun for more information.
This is free software; see the source code for copying conditions.
There is ABSOLUTELY NO WARRANTY; not even for MERCHANTABILITY or FITNESS FOR A PARTICULAR PURPOSE.
For details see the documentation.
Scientific users of this library should cite U. Ekstrom, L. Visscher, R. Bast, A. J. Thorvaldsen and K. Ruud;
J.Chem.Theor.Comp. 2010, DOI: 10.1021/ct100117s
XCFun Version 0.99 

Warning: RI is on but no J-basis has been assigned. Assigning Def2/J (nothing to worry about!)
================================================================================

----- Orbital basis set information -----
Your calculation utilizes the basis: 6-31G**
   H-He, Li-Ne : W. J. Hehre, R. Ditchfield and J.A. Pople, J. Chem. Phys. 56, 2257 (1972).
                 Note: He and Ne are unpublished basis sets taken from the Gaussian program.
                 Note: Li and B from J. D. Dill and J. A. Pople, J. Chem. Phys. 62, 2921 (1975).
   Na - Ar     : M. M. Francl, W. J. Pietro, W. J. Hehre, J. S. Binkley, M. S. Gordon, 
                 D. J. DeFrees and J. A. Pople, J. Chem. Phys. 77, 3654 (1982).
   K - Zn      : V. A. Rassolov, J. A. Pople, M. A. Ratner, and T. L. Windus, J. Chem. Phys. 109, 1223 (1998).

----- AuxJ basis set information -----
Your calculation utilizes the auxiliary basis: def2/J
   F. Weigend, Phys. Chem. Chem. Phys. 8, 1057 (2006).

================================================================================
                                        WARNINGS
                       Please study these warnings very carefully!
================================================================================


WARNING: Geometry Optimization
  ===> : Switching off AutoStart
         For restart on a previous wavefunction, please use MOREAD

================================================================================
                                       INPUT FILE
================================================================================
NAME = input.inp
|  1> # Automatically generated ORCA input
|  2> 
|  3> # Number of cores
|  4> %pal nprocs 24 end
|  5> # RAM per core
|  6> %maxcore 2560
|  7> 
|  8> ! wB97X-D3 
|  9> ! 6-31G** 
| 10> ! TightSCF 
| 11> ! Freq 
| 12> ! NoSym 
| 13> ! Opt 
| 14> 
| 15> %geom
| 16>   Calc_Hess true
| 17> end
| 18> 
| 19> 
| 20> *xyz 0 1 
| 21> C        -1.32449453     -2.05522010      0.53698467
| 22> C        -0.02755914     -1.67044555      0.94517610
| 23> C         0.99674111     -2.60995063      0.72626298
| 24> C         0.77765767     -3.85755305      0.15722690
| 25> C        -0.51037286     -4.21505018     -0.22788251
| 26> C        -1.54855286     -3.31483387     -0.03500472
| 27> H         2.00832963     -2.33964169      1.02350563
| 28> H         1.60370842     -4.54935840      0.01235349
| 29> H        -0.71140019     -5.18537617     -0.67257115
| 30> H        -2.55041665     -3.60261342     -0.32809908
| 31> H        -1.46541101      0.20718064      1.06448337
| 32> B         0.39402338     -0.29804928      1.70844101
| 33> N        -2.43798229     -1.12615956      0.72393374
| 34> C        -3.26906763     -1.38866805      1.96270333
| 35> C        -3.17096833     -0.69746142     -0.52331069
| 36> C        -4.21071748     -0.19192072      2.20693432
| 37> C        -2.35226190     -1.51279123      3.18890705
| 38> C        -4.10364754     -2.68560210      1.92426684
| 39> C        -4.03397479      0.52403032     -0.15226251
| 40> C        -4.05161572     -1.76931977     -1.20673158
| 41> C        -2.17649532     -0.23648162     -1.59839984
| 42> H        -4.87927068     -0.45478902      3.03465433
| 43> H        -3.61924754      0.66684492      2.54359766
| 44> C        -5.00607524      0.23174390      0.97980851
| 45> H        -1.71052231     -2.39511481      3.13291744
| 46> H        -1.70480612     -0.64712736      3.32014044
| 47> H        -2.97762522     -1.60561661      4.08268774
| 48> H        -3.50308815     -3.54171264      1.61127508
| 49> H        -4.46276179     -2.89404570      2.93586750
| 50> H        -4.98477960     -2.61816456      1.28545241
| 51> H        -4.56200316      0.86263960     -1.05102838
| 52> H        -3.37038650      1.34530356      0.15216586
| 53> H        -4.73463273     -1.26773785     -1.89920691
| 54> H        -3.44365757     -2.45669861     -1.79840702
| 55> H        -4.65507805     -2.35712768     -0.51993662
| 56> H        -1.70191039      0.70394525     -1.32349771
| 57> H        -1.40848932     -0.98837541     -1.79667758
| 58> H        -2.72215289     -0.06379405     -2.53141561
| 59> H        -5.60170839      1.12160175      1.21063077
| 60> H        -5.71710089     -0.54852197      0.68177326
| 61> H         1.51086492      0.05860279      1.38058292
| 62> C        -0.64230160      1.00460018      1.33487231
| 63> C        -1.26614149      1.90878230      2.23660748
| 64> C        -1.31992474      3.17412969      1.67699710
| 65> H        -1.68381401      1.60407378      3.18776645
| 66> H        -1.75369357      4.06795711      2.09788534
| 67> H         0.33641321     -0.43893884      2.91218426
| 68> C        -0.68941401      3.07217864      0.43156120
| 69> H        -0.48357123      3.84143942     -0.30044033
| 70> N        -0.30201059      1.81408287      0.22195618
| 71> C         0.60639490      1.40433339     -0.83721932
| 72> H         0.36036478      1.94038264     -1.75653414
| 73> H         1.63419569      1.62176860     -0.53891170
| 74> H         0.51928952      0.33116153     -1.00148768
| 75> *
| 76> 
| 77> 
| 78>                          ****END OF INPUT****
================================================================================

                       *****************************
                       * Geometry Optimization Run *
                       *****************************

Geometry optimization settings:
Update method            Update   .... BFGS
Choice of coordinates    CoordSys .... (2022) Redundant Internals
Initial Hessian          InHess   .... Almloef's Model
Max. no of cycles        MaxIter  .... 162

Convergence Tolerances:
Energy Change            TolE     ....  5.0000e-06 Eh
Max. Gradient            TolMAXG  ....  3.0000e-04 Eh/bohr
RMS Gradient             TolRMSG  ....  1.0000e-04 Eh/bohr
Max. Displacement        TolMAXD  ....  4.0000e-03 bohr
RMS Displacement         TolRMSD  ....  2.0000e-03 bohr
Strict Convergence                .... False

------------------------------------------------------------------------------
                        ORCA OPTIMIZATION COORDINATE SETUP
------------------------------------------------------------------------------

The optimization will be done in redundant internal coordinates (2022)
Making redundant internal coordinates   ...  (2022 redundants) done
Evaluating the initial hessian          ...  (Is done on the fly) done
Evaluating the coordinates              ...  done
Calculating the B-matrix                .... done
Calculating the G-matrix                .... done
Diagonalizing the G-matrix              .... done
Small eigenvalue found = 3.327e-03
Small eigenvalue found = 7.575e-03
Small eigenvalue found = 1.110e-02
Small eigenvalue found = 1.715e-02
Small eigenvalue found = 1.777e-02
Small eigenvalue found = 2.212e-02
The first mode is                       ....  130
The number of degrees of freedom        ....  156

    -----------------------------------------------------------------
                    Redundant Internal Coordinates


    -----------------------------------------------------------------
         Definition                    Initial Value    d2E/dq (diagonal element)
    -----------------------------------------------------------------
      1. B(C   1,C   0)                  1.4131         0.000000   
      2. B(C   2,C   1)                  1.4070         0.000000   
      3. B(C   3,C   2)                  1.3886         0.000000   
      4. B(C   4,C   3)                  1.3911         0.000000   
      5. B(C   5,C   4)                  1.3876         0.000000   
      6. B(C   5,C   0)                  1.4014         0.000000   
      7. B(H   6,C   2)                  1.0885         0.000000   
      8. B(H   7,C   3)                  1.0872         0.000000   
      9. B(H   8,C   4)                  1.0861         0.000000   
     10. B(H   9,C   5)                  1.0828         0.000000   
     11. B(B  11,C   1)                  1.6260         0.000000   
     12. B(N  12,C   0)                  1.4622         0.000000   
     13. B(C  13,N  12)                  1.5146         0.000000   
     14. B(C  14,N  12)                  1.5089         0.000000   
     15. B(C  15,C  13)                  1.5423         0.000000   
     16. B(C  16,C  13)                  1.5361         0.000000   
     17. B(C  17,C  13)                  1.5427         0.000000   
     18. B(C  18,C  14)                  1.5409         0.000000   
     19. B(C  19,C  14)                  1.5464         0.000000   
     20. B(C  20,C  14)                  1.5353         0.000000   
     21. B(H  21,C  15)                  1.0960         0.000000   
     22. B(H  22,C  15)                  1.0957         0.000000   
     23. B(C  23,C  18)                  1.5205         0.000000   
     24. B(C  23,C  15)                  1.5225         0.000000   
     25. B(H  24,C  16)                  1.0925         0.000000   
     26. B(H  25,C  16)                  1.0889         0.000000   
     27. B(H  26,C  16)                  1.0948         0.000000   
     28. B(H  27,C  17)                  1.0916         0.000000   
     29. B(H  28,C  17)                  1.0935         0.000000   
     30. B(H  29,C  17)                  1.0904         0.000000   
     31. B(H  30,C  18)                  1.0960         0.000000   
     32. B(H  31,C  18)                  1.0989         0.000000   
     33. B(H  32,C  19)                  1.0944         0.000000   
     34. B(H  33,C  19)                  1.0919         0.000000   
     35. B(H  34,C  19)                  1.0869         0.000000   
     36. B(H  35,C  20)                  1.0887         0.000000   
     37. B(H  36,C  20)                  1.0929         0.000000   
     38. B(H  37,C  20)                  1.0946         0.000000   
     39. B(H  38,C  23)                  1.0954         0.000000   
     40. B(H  39,C  23)                  1.0969         0.000000   
     41. B(H  40,B  11)                  1.2174         0.000000   
     42. B(C  41,B  11)                  1.7060         0.000000   
     43. B(C  41,H  10)                  1.1775         0.000000   
     44. B(C  42,C  41)                  1.4212         0.000000   
     45. B(C  43,C  42)                  1.3846         0.000000   
     46. B(H  44,C  42)                  1.0826         0.000000   
     47. B(H  45,H  38)                  4.9270         0.000000   
     48. B(H  45,C  43)                  1.0790         0.000000   
     49. B(H  46,B  11)                  1.2133         0.000000   
     50. B(C  47,C  43)                  1.3997         0.000000   
     51. B(H  48,C  47)                  1.0816         0.000000   
     52. B(N  49,C  47)                  1.3330         0.000000   
     53. B(N  49,C  41)                  1.4176         0.000000   
     54. B(C  50,N  49)                  1.4543         0.000000   
     55. B(H  51,C  50)                  1.0923         0.000000   
     56. B(H  52,C  50)                  1.0921         0.000000   
     57. B(H  53,C  50)                  1.0892         0.000000   
     58. A(C   1,C   0,C   5)          120.6231         0.000000   
     59. A(C   5,C   0,N  12)          120.1013         0.000000   
     60. A(C   1,C   0,N  12)          119.2747         0.000000   
     61. A(C   0,C   1,C   2)          116.1929         0.000000   
     62. A(C   2,C   1,B  11)          116.6068         0.000000   
     63. A(C   0,C   1,B  11)          127.1147         0.000000   
     64. A(C   1,C   2,H   6)          117.9214         0.000000   
     65. A(C   3,C   2,H   6)          118.7934         0.000000   
     66. A(C   1,C   2,C   3)          123.2848         0.000000   
     67. A(C   2,C   3,C   4)          119.3678         0.000000   
     68. A(C   4,C   3,H   7)          120.2054         0.000000   
     69. A(C   2,C   3,H   7)          120.4268         0.000000   
     70. A(C   3,C   4,H   8)          120.9510         0.000000   
     71. A(C   5,C   4,H   8)          119.8690         0.000000   
     72. A(C   3,C   4,C   5)          119.1798         0.000000   
     73. A(C   0,C   5,C   4)          121.3474         0.000000   
     74. A(C   0,C   5,H   9)          119.8206         0.000000   
     75. A(C   4,C   5,H   9)          118.8302         0.000000   
     76. A(H  40,B  11,H  46)          110.1674         0.000000   
     77. A(C   1,B  11,H  46)          110.8175         0.000000   
     78. A(C  41,B  11,H  46)          106.0852         0.000000   
     79. A(H  40,B  11,C  41)          105.9392         0.000000   
     80. A(C   1,B  11,H  40)          111.0218         0.000000   
     81. A(C   1,B  11,C  41)          112.5939         0.000000   
     82. A(C   0,N  12,C  13)          114.3491         0.000000   
     83. A(C  13,N  12,C  14)          117.3060         0.000000   
     84. A(C   0,N  12,C  14)          116.4093         0.000000   
     85. A(C  16,C  13,C  17)          105.9524         0.000000   
     86. A(N  12,C  13,C  17)          114.9706         0.000000   
     87. A(C  15,C  13,C  17)          109.0251         0.000000   
     88. A(C  15,C  13,C  16)          107.5000         0.000000   
     89. A(N  12,C  13,C  16)          109.8396         0.000000   
     90. A(N  12,C  13,C  15)          109.2716         0.000000   
     91. A(N  12,C  14,C  20)          110.4547         0.000000   
     92. A(C  18,C  14,C  19)          109.6886         0.000000   
     93. A(N  12,C  14,C  19)          116.4245         0.000000   
     94. A(N  12,C  14,C  18)          107.3521         0.000000   
     95. A(C  19,C  14,C  20)          105.5159         0.000000   
     96. A(C  18,C  14,C  20)          107.0594         0.000000   
     97. A(H  22,C  15,C  23)          108.1523         0.000000   
     98. A(H  21,C  15,C  23)          110.9033         0.000000   
     99. A(C  13,C  15,C  23)          114.0329         0.000000   
    100. A(H  21,C  15,H  22)          106.5711         0.000000   
    101. A(C  13,C  15,H  22)          109.1007         0.000000   
    102. A(C  13,C  15,H  21)          107.8141         0.000000   
    103. A(H  25,C  16,H  26)          107.9779         0.000000   
    104. A(H  24,C  16,H  26)          107.9938         0.000000   
    105. A(C  13,C  16,H  26)          108.5196         0.000000   
    106. A(H  24,C  16,H  25)          107.3950         0.000000   
    107. A(C  13,C  16,H  25)          112.7579         0.000000   
    108. A(C  13,C  16,H  24)          112.0217         0.000000   
    109. A(H  28,C  17,H  29)          106.7608         0.000000   
    110. A(H  27,C  17,H  29)          108.9716         0.000000   
    111. A(C  13,C  17,H  29)          113.5623         0.000000   
    112. A(H  27,C  17,H  28)          107.2437         0.000000   
    113. A(C  13,C  17,H  28)          108.3524         0.000000   
    114. A(C  13,C  17,H  27)          111.6440         0.000000   
    115. A(H  30,C  18,H  31)          106.6911         0.000000   
    116. A(C  23,C  18,H  31)          108.8734         0.000000   
    117. A(C  14,C  18,H  31)          108.7201         0.000000   
    118. A(C  23,C  18,H  30)          111.2180         0.000000   
    119. A(C  14,C  18,H  30)          108.4972         0.000000   
    120. A(C  14,C  18,C  23)          112.6407         0.000000   
    121. A(H  32,C  19,H  34)          107.5287         0.000000   
    122. A(C  14,C  19,H  34)          114.3158         0.000000   
    123. A(H  32,C  19,H  33)          107.0475         0.000000   
    124. A(C  14,C  19,H  33)          111.0229         0.000000   
    125. A(C  14,C  19,H  32)          108.5047         0.000000   
    126. A(H  33,C  19,H  34)          108.1250         0.000000   
    127. A(H  36,C  20,H  37)          107.7103         0.000000   
    128. A(H  35,C  20,H  37)          107.2340         0.000000   
    129. A(C  14,C  20,H  37)          108.7444         0.000000   
    130. A(H  35,C  20,H  36)          109.4973         0.000000   
    131. A(C  14,C  20,H  36)          112.0634         0.000000   
    132. A(C  14,C  20,H  35)          111.4018         0.000000   
    133. A(C  15,C  23,C  18)          108.6387         0.000000   
    134. A(H  38,C  23,H  39)          106.4179         0.000000   
    135. A(C  18,C  23,H  39)          110.4176         0.000000   
    136. A(C  15,C  23,H  39)          111.0808         0.000000   
    137. A(C  18,C  23,H  38)          110.3873         0.000000   
    138. A(C  15,C  23,H  38)          109.8941         0.000000   
    139. A(C  42,C  41,N  49)          103.8978         0.000000   
    140. A(B  11,C  41,N  49)          117.5228         0.000000   
    141. A(H  10,C  41,N  49)          111.9765         0.000000   
    142. A(B  11,C  41,C  42)          127.8428         0.000000   
    143. A(H  10,C  41,C  42)          105.6467         0.000000   
    144. A(H  10,C  41,B  11)           87.5823         0.000000   
    145. A(C  43,C  42,H  44)          126.6787         0.000000   
    146. A(C  41,C  42,H  44)          123.2118         0.000000   
    147. A(C  41,C  42,C  43)          109.9999         0.000000   
    148. A(H  45,C  43,C  47)          126.0527         0.000000   
    149. A(C  42,C  43,C  47)          105.9957         0.000000   
    150. A(C  42,C  43,H  45)          127.9516         0.000000   
    151. A(H  48,C  47,N  49)          120.6318         0.000000   
    152. A(C  43,C  47,N  49)          109.8519         0.000000   
    153. A(C  43,C  47,H  48)          129.5018         0.000000   
    154. A(C  47,N  49,C  50)          124.1935         0.000000   
    155. A(C  41,N  49,C  50)          124.1129         0.000000   
    156. A(C  41,N  49,C  47)          110.2262         0.000000   
    157. A(H  52,C  50,H  53)          108.2187         0.000000   
    158. A(H  51,C  50,H  53)          109.7924         0.000000   
    159. A(N  49,C  50,H  53)          109.7250         0.000000   
    160. A(H  51,C  50,H  52)          110.1320         0.000000   
    161. A(N  49,C  50,H  52)          109.4409         0.000000   
    162. A(N  49,C  50,H  51)          109.5130         0.000000   
    163. D(B  11,C   1,C   0,N  12)      3.9412         0.000000   
    164. D(C   2,C   1,C   0,C   5)      0.7708         0.000000   
    165. D(B  11,C   1,C   0,C   5)   -175.7292         0.000000   
    166. D(C   2,C   1,C   0,N  12)   -179.5588         0.000000   
    167. D(C   3,C   2,C   1,B  11)    176.2208         0.000000   
    168. D(H   6,C   2,C   1,C   0)    179.5604         0.000000   
    169. D(H   6,C   2,C   1,B  11)     -3.5608         0.000000   
    170. D(C   3,C   2,C   1,C   0)     -0.6581         0.000000   
    171. D(H   7,C   3,C   2,H   6)     -0.0166         0.000000   
    172. D(C   4,C   3,C   2,C   1)      0.2625         0.000000   
    173. D(C   4,C   3,C   2,H   6)   -179.9577         0.000000   
    174. D(H   7,C   3,C   2,C   1)   -179.7963         0.000000   
    175. D(H   8,C   4,C   3,C   2)   -179.8083         0.000000   
    176. D(C   5,C   4,C   3,C   2)      0.0393         0.000000   
    177. D(C   5,C   4,C   3,H   7)   -179.9020         0.000000   
    178. D(H   8,C   4,C   3,H   7)      0.2505         0.000000   
    179. D(H   9,C   5,C   4,H   8)      0.4289         0.000000   
    180. D(C   0,C   5,C   4,C   3)      0.0923         0.000000   
    181. D(C   0,C   5,C   4,H   8)    179.9415         0.000000   
    182. D(H   9,C   5,C   0,N  12)     -0.6787         0.000000   
    183. D(H   9,C   5,C   0,C   1)    178.9890         0.000000   
    184. D(H   9,C   5,C   4,C   3)   -179.4204         0.000000   
    185. D(C   4,C   5,C   0,C   1)     -0.5190         0.000000   
    186. D(C   4,C   5,C   0,N  12)    179.8134         0.000000   
    187. D(H  46,B  11,C   1,C   0)     89.7651         0.000000   
    188. D(C  41,B  11,C   1,C   2)    154.6394         0.000000   
    189. D(C  41,B  11,C   1,C   0)    -28.8732         0.000000   
    190. D(H  40,B  11,C   1,C   2)     36.0470         0.000000   
    191. D(H  40,B  11,C   1,C   0)   -147.4656         0.000000   
    192. D(C  13,N  12,C   0,C   5)     81.5022         0.000000   
    193. D(C  13,N  12,C   0,C   1)    -98.1700         0.000000   
    194. D(C  14,N  12,C   0,C   5)    -60.3986         0.000000   
    195. D(C  14,N  12,C   0,C   1)    119.9292         0.000000   
    196. D(C  17,C  13,N  12,C   0)    -68.7428         0.000000   
    197. D(C  16,C  13,N  12,C  14)   -167.8383         0.000000   
    198. D(C  16,C  13,N  12,C   0)     50.6193         0.000000   
    199. D(C  15,C  13,N  12,C  14)    -50.1405         0.000000   
    200. D(C  15,C  13,N  12,C   0)    168.3170         0.000000   
    201. D(C  20,C  14,N  12,C   0)    -49.2797         0.000000   
    202. D(C  19,C  14,N  12,C  13)    -69.7588         0.000000   
    203. D(C  19,C  14,N  12,C   0)     70.9963         0.000000   
    204. D(C  18,C  14,N  12,C  13)     53.5689         0.000000   
    205. D(C  18,C  14,N  12,C   0)   -165.6760         0.000000   
    206. D(H  22,C  15,C  13,C  17)    162.4721         0.000000   
    207. D(H  22,C  15,C  13,C  16)     48.0443         0.000000   
    208. D(H  22,C  15,C  13,N  12)    -71.1139         0.000000   
    209. D(H  21,C  15,C  13,C  17)     47.1125         0.000000   
    210. D(H  21,C  15,C  13,N  12)    173.5264         0.000000   
    211. D(H  21,C  15,C  13,C  16)    -67.3154         0.000000   
    212. D(H  25,C  16,C  13,C  15)    -63.7304         0.000000   
    213. D(H  25,C  16,C  13,N  12)     55.0634         0.000000   
    214. D(H  24,C  16,C  13,C  17)     58.5158         0.000000   
    215. D(H  24,C  16,C  13,C  15)    174.9787         0.000000   
    216. D(H  25,C  16,C  13,C  17)    179.8067         0.000000   
    217. D(H  24,C  16,C  13,N  12)    -66.2275         0.000000   
    218. D(H  28,C  17,C  13,C  16)     45.0785         0.000000   
    219. D(H  28,C  17,C  13,C  15)    -70.3500         0.000000   
    220. D(H  27,C  17,C  13,C  16)    -72.8032         0.000000   
    221. D(H  27,C  17,C  13,C  15)    171.7682         0.000000   
    222. D(H  27,C  17,C  13,N  12)     48.6963         0.000000   
    223. D(H  28,C  17,C  13,N  12)    166.5781         0.000000   
    224. D(C  23,C  18,C  14,C  19)     69.9466         0.000000   
    225. D(C  23,C  18,C  14,N  12)    -57.4259         0.000000   
    226. D(H  30,C  18,C  14,C  20)     60.3876         0.000000   
    227. D(H  30,C  18,C  14,C  19)    -53.6287         0.000000   
    228. D(H  30,C  18,C  14,N  12)    178.9988         0.000000   
    229. D(C  23,C  18,C  14,C  20)   -176.0371         0.000000   
    230. D(H  33,C  19,C  14,C  20)     43.9947         0.000000   
    231. D(H  33,C  19,C  14,C  18)    159.0001         0.000000   
    232. D(H  33,C  19,C  14,N  12)    -78.8906         0.000000   
    233. D(H  32,C  19,C  14,C  20)    -73.3809         0.000000   
    234. D(H  32,C  19,C  14,C  18)     41.6246         0.000000   
    235. D(H  32,C  19,C  14,N  12)    163.7338         0.000000   
    236. D(H  36,C  20,C  14,C  19)    -73.2521         0.000000   
    237. D(H  36,C  20,C  14,C  18)    169.9442         0.000000   
    238. D(H  36,C  20,C  14,N  12)     53.3660         0.000000   
    239. D(H  35,C  20,C  14,C  19)    163.6779         0.000000   
    240. D(H  35,C  20,C  14,C  18)     46.8742         0.000000   
    241. D(H  35,C  20,C  14,N  12)    -69.7040         0.000000   
    242. D(H  38,C  23,C  18,H  30)    -57.7545         0.000000   
    243. D(H  38,C  23,C  18,C  14)   -179.8056         0.000000   
    244. D(C  15,C  23,C  18,H  31)    -61.0371         0.000000   
    245. D(C  15,C  23,C  18,H  30)   -178.3162         0.000000   
    246. D(C  15,C  23,C  18,C  14)     59.6327         0.000000   
    247. D(H  38,C  23,C  15,H  22)    -54.8901         0.000000   
    248. D(H  38,C  23,C  15,H  21)     61.6298         0.000000   
    249. D(H  38,C  23,C  15,C  13)   -176.4407         0.000000   
    250. D(C  18,C  23,C  15,H  22)     65.9761         0.000000   
    251. D(C  18,C  23,C  15,H  21)   -177.5040         0.000000   
    252. D(H  38,C  23,C  18,H  31)     59.5246         0.000000   
    253. D(C  18,C  23,C  15,C  13)    -55.5745         0.000000   
    254. D(C  42,C  41,B  11,H  46)     10.3581         0.000000   
    255. D(C  42,C  41,B  11,H  40)   -106.7397         0.000000   
    256. D(C  42,C  41,B  11,C   1)    131.7316         0.000000   
    257. D(H  10,C  41,B  11,H  46)    -97.6428         0.000000   
    258. D(H  10,C  41,B  11,H  40)    145.2594         0.000000   
    259. D(H  10,C  41,B  11,C   1)     23.7307         0.000000   
    260. D(H  44,C  42,C  41,B  11)    -39.6139         0.000000   
    261. D(H  44,C  42,C  41,H  10)     59.7159         0.000000   
    262. D(C  43,C  42,C  41,N  49)      1.3044         0.000000   
    263. D(C  43,C  42,C  41,B  11)    143.9631         0.000000   
    264. D(C  43,C  42,C  41,H  10)   -116.7072         0.000000   
    265. D(C  47,C  43,C  42,H  44)   -178.0041         0.000000   
    266. D(C  47,C  43,C  42,C  41)     -1.7358         0.000000   
    267. D(H  45,C  43,C  42,H  44)      2.0106         0.000000   
    268. D(H  45,C  43,C  42,C  41)    178.2788         0.000000   
    269. D(N  49,C  47,C  43,H  45)   -178.5020         0.000000   
    270. D(N  49,C  47,C  43,C  42)      1.5122         0.000000   
    271. D(H  48,C  47,C  43,H  45)      2.9018         0.000000   
    272. D(H  48,C  47,C  43,C  42)   -177.0839         0.000000   
    273. D(C  50,N  49,C  47,C  43)   -167.3563         0.000000   
    274. D(C  41,N  49,C  47,H  48)    178.0207         0.000000   
    275. D(C  41,N  49,C  47,C  43)     -0.7204         0.000000   
    276. D(C  50,N  49,C  41,B  11)     18.9933         0.000000   
    277. D(C  50,N  49,C  41,H  10)    -80.1546         0.000000   
    278. D(C  47,N  49,C  41,C  42)     -0.3479         0.000000   
    279. D(C  47,N  49,C  41,B  11)   -147.6555         0.000000   
    280. D(C  50,N  49,C  47,H  48)     11.3849         0.000000   
    281. D(C  47,N  49,C  41,H  10)    113.1966         0.000000   
    282. D(H  53,C  50,N  49,C  41)     33.1228         0.000000   
    283. D(H  52,C  50,N  49,C  47)     79.3316         0.000000   
    284. D(H  52,C  50,N  49,C  41)    -85.4820         0.000000   
    285. D(H  51,C  50,N  49,C  47)    -41.4865         0.000000   
    286. D(H  51,C  50,N  49,C  41)    153.7000         0.000000   
    -----------------------------------------------------------------

Number of atoms                         .... 54
Number of degrees of freedom            .... 286


         *************************************************************
         *                GEOMETRY OPTIMIZATION CYCLE   1            *
         *************************************************************
---------------------------------
CARTESIAN COORDINATES (ANGSTROEM)
---------------------------------
  C     -1.324495   -2.055220    0.536985
  C     -0.027559   -1.670446    0.945176
  C      0.996741   -2.609951    0.726263
  C      0.777658   -3.857553    0.157227
  C     -0.510373   -4.215050   -0.227883
  C     -1.548553   -3.314834   -0.035005
  H      2.008330   -2.339642    1.023506
  H      1.603708   -4.549358    0.012353
  H     -0.711400   -5.185376   -0.672571
  H     -2.550417   -3.602613   -0.328099
  H     -1.465411    0.207181    1.064483
  B      0.394023   -0.298049    1.708441
  N     -2.437982   -1.126160    0.723934
  C     -3.269068   -1.388668    1.962703
  C     -3.170968   -0.697461   -0.523311
  C     -4.210717   -0.191921    2.206934
  C     -2.352262   -1.512791    3.188907
  C     -4.103648   -2.685602    1.924267
  C     -4.033975    0.524030   -0.152263
  C     -4.051616   -1.769320   -1.206732
  C     -2.176495   -0.236482   -1.598400
  H     -4.879271   -0.454789    3.034654
  H     -3.619248    0.666845    2.543598
  C     -5.006075    0.231744    0.979809
  H     -1.710522   -2.395115    3.132917
  H     -1.704806   -0.647127    3.320140
  H     -2.977625   -1.605617    4.082688
  H     -3.503088   -3.541713    1.611275
  H     -4.462762   -2.894046    2.935868
  H     -4.984780   -2.618165    1.285452
  H     -4.562003    0.862640   -1.051028
  H     -3.370386    1.345304    0.152166
  H     -4.734633   -1.267738   -1.899207
  H     -3.443658   -2.456699   -1.798407
  H     -4.655078   -2.357128   -0.519937
  H     -1.701910    0.703945   -1.323498
  H     -1.408489   -0.988375   -1.796678
  H     -2.722153   -0.063794   -2.531416
  H     -5.601708    1.121602    1.210631
  H     -5.717101   -0.548522    0.681773
  H      1.510865    0.058603    1.380583
  C     -0.642302    1.004600    1.334872
  C     -1.266141    1.908782    2.236607
  C     -1.319925    3.174130    1.676997
  H     -1.683814    1.604074    3.187766
  H     -1.753694    4.067957    2.097885
  H      0.336413   -0.438939    2.912184
  C     -0.689414    3.072179    0.431561
  H     -0.483571    3.841439   -0.300440
  N     -0.302011    1.814083    0.221956
  C      0.606395    1.404333   -0.837219
  H      0.360365    1.940383   -1.756534
  H      1.634196    1.621769   -0.538912
  H      0.519290    0.331162   -1.001488

----------------------------
CARTESIAN COORDINATES (A.U.)
----------------------------
  NO LB      ZA    FRAG     MASS         X           Y           Z
   0 C     6.0000    0    12.011   -2.502932   -3.883803    1.014754
   1 C     6.0000    0    12.011   -0.052079   -3.156685    1.786124
   2 C     6.0000    0    12.011    1.883568   -4.932092    1.372438
   3 C     6.0000    0    12.011    1.469560   -7.289719    0.297116
   4 C     6.0000    0    12.011   -0.964465   -7.965290   -0.430636
   5 C     6.0000    0    12.011   -2.926341   -6.264128   -0.066149
   6 H     1.0000    0     1.008    3.795193   -4.421282    1.934145
   7 H     1.0000    0     1.008    3.030570   -8.597041    0.023345
   8 H     1.0000    0     1.008   -1.344352   -9.798941   -1.270975
   9 H     1.0000    0     1.008   -4.819589   -6.807953   -0.620017
  10 H     1.0000    0     1.008   -2.769225    0.391515    2.011582
  11 B     5.0000    0    10.810    0.744596   -0.563232    3.228486
  12 N     7.0000    0    14.007   -4.607119   -2.128133    1.368037
  13 C     6.0000    0    12.011   -6.177643   -2.624202    3.708972
  14 C     6.0000    0    12.011   -5.992262   -1.318011   -0.988914
  15 C     6.0000    0    12.011   -7.957103   -0.362678    4.170501
  16 C     6.0000    0    12.011   -4.445131   -2.858761    6.026161
  17 C     6.0000    0    12.011   -7.754770   -5.075052    3.636337
  18 C     6.0000    0    12.011   -7.623108    0.990274   -0.287734
  19 C     6.0000    0    12.011   -7.656444   -3.343530   -2.280392
  20 C     6.0000    0    12.011   -4.112980   -0.446885   -3.020538
  21 H     1.0000    0     1.008   -9.220485   -0.859427    5.734666
  22 H     1.0000    0     1.008   -6.839387    1.260154    4.806703
  23 C     6.0000    0    12.011   -9.460111    0.437933    1.851570
  24 H     1.0000    0     1.008   -3.232419   -4.526111    5.920356
  25 H     1.0000    0     1.008   -3.221617   -1.222893    6.274156
  26 H     1.0000    0     1.008   -5.626896   -3.034176    7.715162
  27 H     1.0000    0     1.008   -6.619877   -6.692867    3.044869
  28 H     1.0000    0     1.008   -8.433398   -5.468954    5.547986
  29 H     1.0000    0     1.008   -9.419868   -4.947614    2.429153
  30 H     1.0000    0     1.008   -8.620937    1.630153   -1.986156
  31 H     1.0000    0     1.008   -6.369107    2.542255    0.287552
  32 H     1.0000    0     1.008   -8.947159   -2.395677   -3.588981
  33 H     1.0000    0     1.008   -6.507570   -4.642488   -3.398497
  34 H     1.0000    0     1.008   -8.796823   -4.454326   -0.982538
  35 H     1.0000    0     1.008   -3.216145    1.330264   -2.501048
  36 H     1.0000    0     1.008   -2.661659   -1.867759   -3.395229
  37 H     1.0000    0     1.008   -5.144123   -0.120553   -4.783682
  38 H     1.0000    0     1.008  -10.585695    2.119520    2.287761
  39 H     1.0000    0     1.008  -10.803755   -1.036556    1.288365
  40 H     1.0000    0     1.008    2.855121    0.110743    2.608924
  41 C     6.0000    0    12.011   -1.213774    1.898419    2.522543
  42 C     6.0000    0    12.011   -2.392661    3.607076    4.226576
  43 C     6.0000    0    12.011   -2.494296    5.998236    3.169065
  44 H     1.0000    0     1.008   -3.181947    3.031260    6.024006
  45 H     1.0000    0     1.008   -3.314001    7.687325    3.964429
  46 H     1.0000    0     1.008    0.635729   -0.829474    5.503231
  47 C     6.0000    0    12.011   -1.302804    5.805576    0.815532
  48 H     1.0000    0     1.008   -0.913817    7.259268   -0.567750
  49 N     7.0000    0    14.007   -0.570717    3.428120    0.419436
  50 C     6.0000    0    12.011    1.145920    2.653806   -1.582115
  51 H     1.0000    0     1.008    0.680991    3.666792   -3.319368
  52 H     1.0000    0     1.008    3.088182    3.064699   -1.018396
  53 H     1.0000    0     1.008    0.981315    0.625805   -1.892537

--------------------------------
INTERNAL COORDINATES (ANGSTROEM)
--------------------------------
 C      0   0   0     0.000000000000     0.00000000     0.00000000
 C      1   0   0     1.413050991185     0.00000000     0.00000000
 C      2   1   0     1.407047885327   116.19292729     0.00000000
 C      3   2   1     1.388636529987   123.28482350   359.34193763
 C      4   3   2     1.391091694261   119.36775186     0.26254642
 C      5   4   3     1.387591063342   119.17975694     0.03928105
 H      3   2   1     1.088453696681   117.92141763   179.56042239
 H      4   3   2     1.087171922370   120.42683464   180.20366902
 H      5   4   3     1.086136501928   120.95103345   180.19171924
 H      6   5   4     1.082798423981   118.83019505   180.57962293
 H      1   2   3     2.327352453151    74.06169574   190.03137937
 B      2   1   3     1.625969454177   127.11467755   183.50000790
 N      1   2   3     1.462175924241   119.27470632   180.44121101
 C     13   1   2     1.514649677910   114.34910295   261.83001170
 C     13   1   2     1.508863578406   116.40932247   119.92923240
 C     14  13   1     1.542257238058   109.27157553   168.31704314
 C     14  13   1     1.536071246172   109.83959246    50.61930555
 C     14  13   1     1.542737476043   114.97063286   291.25715358
 C     15  13   1     1.540940937470   107.35208864   194.32399800
 C     15  13   1     1.546442453138   116.42447673    70.99632881
 C     15  13   1     1.535348697878   110.45469054   310.72031280
 H     16  14  13     1.095985191200   107.81413106   173.52642980
 H     16  14  13     1.095745097579   109.10068857   288.88608020
 C     19  15  13     1.520524722104   112.64073240   302.57412281
 H     17  14  13     1.092455691379   112.02169814   293.77254514
 H     17  14  13     1.088942204862   112.75789106    55.06341594
 H     17  14  13     1.094778404514   108.51956433   174.63480786
 H     18  14  13     1.091586313328   111.64396224    48.69633677
 H     18  14  13     1.093502480220   108.35236071   166.57811592
 H     18  14  13     1.090424415050   113.56225246   285.01142907
 H     19  15  13     1.096015644552   108.49715695   178.99883367
 H     19  15  13     1.098870231568   108.72011296    63.33173738
 H     20  15  13     1.094357684251   108.50465543   163.73382186
 H     20  15  13     1.091871149967   111.02287718   281.10936165
 H     20  15  13     1.086909490192   114.31583287    43.75043329
 H     21  15  13     1.088671086545   111.40175238   290.29600869
 H     21  15  13     1.092927970937   112.06336302    53.36600670
 H     21  15  13     1.094569142448   108.74443028   172.32394124
 H     24  19  15     1.095401642457   110.38725070   180.19441726
 H     24  19  15     1.096903511293   110.41759086   297.58709643
 H     12   2   1     1.217385169814   111.02175467   212.53439208
 C     11   1   2     1.177496158159   131.91578602     7.80851432
 C     42  11   1     1.421213506584   105.64668025   211.85037919
 C     43  42  11     1.384615626361   109.99991472   243.29281524
 H     43  42  11     1.082589951152   123.21184675    59.71586407
 H     44  43  42     1.078994793868   127.95155724   178.27883035
 H     12   2   1     1.213328731929   110.81751138    89.76505150
 C     44  43  42     1.399660093826   105.99574544   358.26417896
 H     48  44  43     1.081646724974   129.50182886   182.91608728
 N     48  44  43     1.332974358616   109.85186433     1.51224198
 C     50  48  44     1.454286048349   124.19352256   192.64373091
 H     51  50  48     1.092254254578   109.51297904   318.51354446
 H     51  50  48     1.092080569657   109.44086510    79.33156053
 H     51  50  48     1.089159897544   109.72503662   197.93634517

---------------------------
INTERNAL COORDINATES (A.U.)
---------------------------
 C      0   0   0     0.000000000000     0.00000000     0.00000000
 C      1   0   0     2.670279386605     0.00000000     0.00000000
 C      2   1   0     2.658935160582   116.19292729     0.00000000
 C      3   2   1     2.624142741234   123.28482350   359.34193763
 C      4   3   2     2.628782329325   119.36775186     0.26254642
 C      5   4   3     2.622167095592   119.17975694     0.03928105
 H      3   2   1     2.056879396181   117.92141763   179.56042239
 H      4   3   2     2.054457193768   120.42683464   180.20366902
 H      5   4   3     2.052500532700   120.95103345   180.19171924
 H      6   5   4     2.046192479565   118.83019505   180.57962293
 H      1   2   3     4.398058753566    74.06169574   190.03137937
 B      2   1   3     3.072636970516   127.11467755   183.50000790
 N      1   2   3     2.763112056428   119.27470632   180.44121101
 C     13   1   2     2.862273080082   114.34910295   261.83001170
 C     13   1   2     2.851338936636   116.40932247   119.92923240
 C     14  13   1     2.914443807988   109.27157553   168.31704314
 C     14  13   1     2.902753977456   109.83959246    50.61930555
 C     14  13   1     2.915351326259   114.97063286   291.25715358
 C     15  13   1     2.911956360366   107.35208864   194.32399800
 C     15  13   1     2.922352718300   116.42447673    70.99632881
 C     15  13   1     2.901388559061   110.45469054   310.72031280
 H     16  14  13     2.071111858201   107.81413106   173.52642980
 H     16  14  13     2.070658147011   109.10068857   288.88608020
 C     19  15  13     2.873375304634   112.64073240   302.57412281
 H     17  14  13     2.064442070149   112.02169814   293.77254514
 H     17  14  13     2.057802542858   112.75789106    55.06341594
 H     17  14  13     2.068831361863   108.51956433   174.63480786
 H     18  14  13     2.062799183726   111.64396224    48.69633677
 H     18  14  13     2.066420214379   108.35236071   166.57811592
 H     18  14  13     2.060603514186   113.56225246   285.01142907
 H     19  15  13     2.071169406697   108.49715695   178.99883367
 H     19  15  13     2.076563794382   108.72011296    63.33173738
 H     20  15  13     2.068036315786   108.50465543   163.73382186
 H     20  15  13     2.063337446967   111.02287718   281.10936165
 H     20  15  13     2.053961268822   114.31583287    43.75043329
 H     21  15  13     2.057290203489   111.40175238   290.29600869
 H     21  15  13     2.065334549173   112.06336302    53.36600670
 H     21  15  13     2.068435913868   108.74443028   172.32394124
 H     24  19  15     2.070009110891   110.38725070   180.19441726
 H     24  19  15     2.072847231681   110.41759086   297.58709643
 H     12   2   1     2.300524570446   111.02175467   212.53439208
 C     11   1   2     2.225145262665   131.91578602     7.80851432
 C     42  11   1     2.685704305274   105.64668025   211.85037919
 C     43  42  11     2.616544334571   109.99991472   243.29281524
 H     43  42  11     2.045798523012   123.21184675    59.71586407
 H     44  43  42     2.039004660337   127.95155724   178.27883035
 H     12   2   1     2.292859013764   110.81751138    89.76505150
 C     44  43  42     2.644974257910   105.99574544   358.26417896
 H     48  44  43     2.044016083853   129.50182886   182.91608728
 N     48  44  43     2.518956481324   109.85186433     1.51224198
 C     50  48  44     2.748202351762   124.19352256   192.64373091
 H     51  50  48     2.064061409763   109.51297904   318.51354446
 H     51  50  48     2.063733192829   109.44086510    79.33156053
 H     51  50  48     2.058213922408   109.72503662   197.93634517

---------------------
BASIS SET INFORMATION
---------------------
There are 4 groups of distinct atoms

 Group   1 Type C   : 10s4p1d contracted to 3s2p1d pattern {631/31/1}
 Group   2 Type H   : 4s1p contracted to 2s1p pattern {31/1}
 Group   3 Type B   : 10s4p1d contracted to 3s2p1d pattern {631/31/1}
 Group   4 Type N   : 10s4p1d contracted to 3s2p1d pattern {631/31/1}

Atom   0C    basis set group =>   1
Atom   1C    basis set group =>   1
Atom   2C    basis set group =>   1
Atom   3C    basis set group =>   1
Atom   4C    basis set group =>   1
Atom   5C    basis set group =>   1
Atom   6H    basis set group =>   2
Atom   7H    basis set group =>   2
Atom   8H    basis set group =>   2
Atom   9H    basis set group =>   2
Atom  10H    basis set group =>   2
Atom  11B    basis set group =>   3
Atom  12N    basis set group =>   4
Atom  13C    basis set group =>   1
Atom  14C    basis set group =>   1
Atom  15C    basis set group =>   1
Atom  16C    basis set group =>   1
Atom  17C    basis set group =>   1
Atom  18C    basis set group =>   1
Atom  19C    basis set group =>   1
Atom  20C    basis set group =>   1
Atom  21H    basis set group =>   2
Atom  22H    basis set group =>   2
Atom  23C    basis set group =>   1
Atom  24H    basis set group =>   2
Atom  25H    basis set group =>   2
Atom  26H    basis set group =>   2
Atom  27H    basis set group =>   2
Atom  28H    basis set group =>   2
Atom  29H    basis set group =>   2
Atom  30H    basis set group =>   2
Atom  31H    basis set group =>   2
Atom  32H    basis set group =>   2
Atom  33H    basis set group =>   2
Atom  34H    basis set group =>   2
Atom  35H    basis set group =>   2
Atom  36H    basis set group =>   2
Atom  37H    basis set group =>   2
Atom  38H    basis set group =>   2
Atom  39H    basis set group =>   2
Atom  40H    basis set group =>   2
Atom  41C    basis set group =>   1
Atom  42C    basis set group =>   1
Atom  43C    basis set group =>   1
Atom  44H    basis set group =>   2
Atom  45H    basis set group =>   2
Atom  46H    basis set group =>   2
Atom  47C    basis set group =>   1
Atom  48H    basis set group =>   2
Atom  49N    basis set group =>   4
Atom  50C    basis set group =>   1
Atom  51H    basis set group =>   2
Atom  52H    basis set group =>   2
Atom  53H    basis set group =>   2
---------------------------------
AUXILIARY/J BASIS SET INFORMATION
---------------------------------
There are 4 groups of distinct atoms

 Group   1 Type C   : 12s5p4d2f1g contracted to 6s4p3d1f1g pattern {711111/2111/211/2/1}
 Group   2 Type H   : 5s2p1d contracted to 3s1p1d pattern {311/2/1}
 Group   3 Type B   : 12s5p4d2f1g contracted to 6s4p3d1f1g pattern {711111/2111/211/2/1}
 Group   4 Type N   : 12s5p4d2f1g contracted to 6s4p3d1f1g pattern {711111/2111/211/2/1}

Atom   0C    basis set group =>   1
Atom   1C    basis set group =>   1
Atom   2C    basis set group =>   1
Atom   3C    basis set group =>   1
Atom   4C    basis set group =>   1
Atom   5C    basis set group =>   1
Atom   6H    basis set group =>   2
Atom   7H    basis set group =>   2
Atom   8H    basis set group =>   2
Atom   9H    basis set group =>   2
Atom  10H    basis set group =>   2
Atom  11B    basis set group =>   3
Atom  12N    basis set group =>   4
Atom  13C    basis set group =>   1
Atom  14C    basis set group =>   1
Atom  15C    basis set group =>   1
Atom  16C    basis set group =>   1
Atom  17C    basis set group =>   1
Atom  18C    basis set group =>   1
Atom  19C    basis set group =>   1
Atom  20C    basis set group =>   1
Atom  21H    basis set group =>   2
Atom  22H    basis set group =>   2
Atom  23C    basis set group =>   1
Atom  24H    basis set group =>   2
Atom  25H    basis set group =>   2
Atom  26H    basis set group =>   2
Atom  27H    basis set group =>   2
Atom  28H    basis set group =>   2
Atom  29H    basis set group =>   2
Atom  30H    basis set group =>   2
Atom  31H    basis set group =>   2
Atom  32H    basis set group =>   2
Atom  33H    basis set group =>   2
Atom  34H    basis set group =>   2
Atom  35H    basis set group =>   2
Atom  36H    basis set group =>   2
Atom  37H    basis set group =>   2
Atom  38H    basis set group =>   2
Atom  39H    basis set group =>   2
Atom  40H    basis set group =>   2
Atom  41C    basis set group =>   1
Atom  42C    basis set group =>   1
Atom  43C    basis set group =>   1
Atom  44H    basis set group =>   2
Atom  45H    basis set group =>   2
Atom  46H    basis set group =>   2
Atom  47C    basis set group =>   1
Atom  48H    basis set group =>   2
Atom  49N    basis set group =>   4
Atom  50C    basis set group =>   1
Atom  51H    basis set group =>   2
Atom  52H    basis set group =>   2
Atom  53H    basis set group =>   2


           ************************************************************
           *        Program running with 24 parallel MPI-processes    *
           *              working on a common directory               *
           ************************************************************
------------------------------------------------------------------------------
                             ORCA STARTUP CALCULATIONS
                           -- RI-GTO INTEGRALS CHOSEN --
------------------------------------------------------------------------------
------------------------------------------------------------------------------
                   ___                                                        
                  /   \      - P O W E R E D   B Y -                         
                 /     \                                                     
                 |  |  |   _    _      __       _____    __    __             
                 |  |  |  | |  | |    /  \     |  _  \  |  |  /  |          
                  \  \/   | |  | |   /    \    | | | |  |  | /  /          
                 / \  \   | |__| |  /  /\  \   | |_| |  |  |/  /          
                |  |  |   |  __  | /  /__\  \  |    /   |      \           
                |  |  |   | |  | | |   __   |  |    \   |  |\   \          
                \     /   | |  | | |  |  |  |  | |\  \  |  | \   \       
                 \___/    |_|  |_| |__|  |__|  |_| \__\ |__|  \__/        
                                                                              
                      - O R C A' S   B I G   F R I E N D -                    
                                      &                                       
                       - I N T E G R A L  F E E D E R -                       
                                                                              
 v1 FN, 2020, v2 2021, v3 2022-2024                                           
------------------------------------------------------------------------------


----------------------
SHARK INTEGRAL PACKAGE
----------------------

Number of atoms                             ...     54
Number of basis functions                   ...    477
Number of shells                            ...    231
Maximum angular momentum                    ...      2
Integral batch strategy                     ... SHARK/LIBINT Hybrid
RI-J (if used) integral strategy            ... SPLIT-RIJ (Revised 2003 algorithm where possible)
Printlevel                                  ...      1
Contraction scheme used                     ... SEGMENTED contraction
Prescreening option                         ... SCHWARTZ
   Thresh                                   ... 2.500e-11
   Tcut                                     ... 2.500e-12
   Tpresel                                  ... 2.500e-12 
Coulomb Range Separation                    ... NOT USED
Exchange Range Separation                   ... Long Range
   Mu parameter                             ... 2.500e-01
   Scaling (regular/separated)              ... 1.957e-01 8.043e-01
Multipole approximations                    ... NOT USED
Finite Nucleus Model                        ... NOT USED
CABS basis                                  ... NOT available
Auxiliary Coulomb fitting basis             ... AVAILABLE
   # of basis functions in Aux-J            ...   1468
   # of shells in Aux-J                     ...    500
   Maximum angular momentum in Aux-J        ...      4
Auxiliary J/K fitting basis                 ... NOT available
Auxiliary Correlation fitting basis         ... NOT available
Auxiliary 'external' fitting basis          ... NOT available

Checking pre-screening integrals            ... done (  0.0 sec) Dimension = 231
Check shell pair data                       ... done (  0.0 sec)
Shell pair information
Shell pair cut-off parameter TPreSel        ...   2.5e-12
Total number of shell pairs                 ...     26796
Shell pairs after pre-screening             ...     20998
Total number of primitive shell pairs       ...    125826
Primitive shell pairs kept                  ...     57373
          la=0 lb=0:   6946 shell pairs
          la=1 lb=0:   7933 shell pairs
          la=1 lb=1:   2325 shell pairs
          la=2 lb=0:   2280 shell pairs
          la=2 lb=1:   1309 shell pairs
          la=2 lb=2:    205 shell pairs

Calculating one electron integrals          ... done (  0.1 sec)
Calculating RI/J V-Matrix + Cholesky decomp.... done (  0.3 sec)
Calculating Nuclear repulsion               ... done (  0.0 sec) ENN=   2157.399689433726 Eh

Diagonalization of the overlap matrix:
Smallest eigenvalue                        ... 4.294e-04
Time for diagonalization                   ...    0.032 sec
Threshold for overlap eigenvalues          ... 1.000e-07
Number of eigenvalues below threshold      ... 0
Time for construction of square roots      ...    0.022 sec
Total time needed                          ...    0.083 sec

-------------------
DFT GRID GENERATION
-------------------

General Integration Accuracy     IntAcc      ... 4.388
Radial Grid Type                 RadialGrid  ... OptM3 with GC (2021)
Angular Grid (max. ang.)         AngularGrid ... 4 (Lebedev-302)
Angular grid pruning method      GridPruning ... 4 (adaptive)
Weight generation scheme         WeightScheme... mBecke (2022)
Basis function cutoff            BFCut       ... 1.0000e-11
Integration weight cutoff        WCut        ... 1.0000e-14
Partially contracted basis set               ... off
Rotationally invariant grid construction     ... off
Angular grids for H and He will be reduced by one unit

Total number of grid points                  ...   232288
Total number of batches                      ...     3661
Average number of points per batch           ...       63
Average number of grid points per atom       ...     4302

--------------------
COSX GRID GENERATION
--------------------

GRIDX 1
-------
General Integration Accuracy     IntAcc      ... 3.816
Radial Grid Type                 RadialGrid  ... OptM3 with GC (2021)
Angular Grid (max. ang.)         AngularGrid ... 1 (Lebedev-50)
Angular grid pruning method      GridPruning ... 4 (adaptive)
Weight generation scheme         WeightScheme... mBecke (2022)
Basis function cutoff            BFCut       ... 1.0000e-11
Integration weight cutoff        WCut        ... 1.0000e-14
Partially contracted basis set               ... on
Rotationally invariant grid construction     ... off
Angular grids for H and He will be reduced by one unit

Total number of grid points                  ...    29481
Total number of batches                      ...      262
Average number of points per batch           ...      112
Average number of grid points per atom       ...      546
UseSFitting                                  ... on

GRIDX 2
-------
General Integration Accuracy     IntAcc      ... 4.020
Radial Grid Type                 RadialGrid  ... OptM3 with GC (2021)
Angular Grid (max. ang.)         AngularGrid ... 2 (Lebedev-110)
Angular grid pruning method      GridPruning ... 4 (adaptive)
Weight generation scheme         WeightScheme... mBecke (2022)
Basis function cutoff            BFCut       ... 1.0000e-11
Integration weight cutoff        WCut        ... 1.0000e-14
Partially contracted basis set               ... on
Rotationally invariant grid construction     ... off
Angular grids for H and He will be reduced by one unit

Total number of grid points                  ...    61304
Total number of batches                      ...      510
Average number of points per batch           ...      120
Average number of grid points per atom       ...     1135
UseSFitting                                  ... on

GRIDX 3
-------
General Integration Accuracy     IntAcc      ... 4.338
Radial Grid Type                 RadialGrid  ... OptM3 with GC (2021)
Angular Grid (max. ang.)         AngularGrid ... 3 (Lebedev-194)
Angular grid pruning method      GridPruning ... 4 (adaptive)
Weight generation scheme         WeightScheme... mBecke (2022)
Basis function cutoff            BFCut       ... 1.0000e-11
Integration weight cutoff        WCut        ... 1.0000e-14
Partially contracted basis set               ... on
Rotationally invariant grid construction     ... off
Angular grids for H and He will be reduced by one unit

Total number of grid points                  ...   132750
Total number of batches                      ...     1065
Average number of points per batch           ...      124
Average number of grid points per atom       ...     2458
UseSFitting                                  ... on
Initializing property integral containers    ... done (  0.1 sec)

SHARK setup successfully completed in   4.3 seconds

Maximum memory used throughout the entire STARTUP-calculation: 69.1 MB


           ************************************************************
           *        Program running with 24 parallel MPI-processes    *
           *              working on a common directory               *
           ************************************************************
-------------------------------------------------------------------------------
                                 ORCA GUESS
                   Start orbitals & Density for SCF / CASSCF
-------------------------------------------------------------------------------

------------
SCF SETTINGS
------------
Hamiltonian:
 Density Functional     Method          .... DFT(GTOs)
 Exchange Functional    Exchange        .... WB97X-D3
 Correlation Functional Correlation     .... WB97X-D3
 Gradients option       PostSCFGGA      .... off
 Hybrid DFT is turned on
   Fraction HF Exchange ScalHFX         ....  0.195728
   Scaling of DF-GGA-X  ScalDFX         ....  0.000000
   Scaling of DF-GGA-C  ScalDFC         ....  1.000000
   Scaling of DF-LDA-C  ScalLDAC        ....  1.000000
   Perturbative correction              ....  0.000000
 Long-range corrected/Screened/Range-Separated Hybrid DFT is turned on
   Amount of maximum screened exact exchange              ....  0.804272
   Range separation parameter mu (erf(mu*r12)/r12)        ....  0.250000
 RI-approximation to the Coulomb term is turned on
   Number of AuxJ basis functions       .... 1468
   RIJ-COSX (HFX calculated with COS-X)).... on


General Settings:
 Integral files         IntName         .... input
 Hartree-Fock type      HFTyp           .... RHF
 Total Charge           Charge          ....    0
 Multiplicity           Mult            ....    1
 Number of Electrons    NEL             ....  170
 Basis Dimension        Dim             ....  477
 Nuclear Repulsion      ENuc            ....   2157.3996894337 Eh

Convergence Acceleration:
 AO-DIIS                CNVDIIS         .... on
   Start iteration      DIISMaxIt       ....    12
   Startup error        DIISStart       ....  0.200000
   # of expansion vecs  DIISMaxEq       ....     5
   Bias factor          DIISBfac        ....   1.050
   Max. coefficient     DIISMaxC        ....  10.000
 MO-DIIS                CNVKDIIS        .... off
 Trust-Rad. Augm. Hess. CNVTRAH         .... auto
   Auto Start mean grad. ratio tolernc. ....  1.125000
   Auto Start start iteration           ....    50
   Auto Start num. interpolation iter.  ....    10
   Max. Number of Micro iterations      ....    24
   Max. Number of Macro iterations      .... Maxiter - #DIIS iter
   Number of Davidson start vectors     ....     2
   Converg. threshold    (grad. norm)   ....   1.000e-05
   Grad. Scal. Fac. for Micro threshold ....   0.100
   Minimum threshold for Micro iter.    ....   1.000e-02
   NR start threshold (gradient norm)   ....   1.000e-04
   Initial trust radius                 ....   0.400
   Minimum AH scaling param. (alpha)    ....   1.000
   Maximum AH scaling param. (alpha)    .... 1000.000
   Quad. conv. algorithm                .... NR
   White noise on init. David. guess    .... on
   Maximum white noise                  ....   0.010
   Pseudo random numbers                .... off
   Inactive MOs                         .... canonical
   Orbital update algorithm             .... Taylor
   Preconditioner                       .... Diag
   Full preconditioner red. dimension   ....   250
 SOSCF                  CNVSOSCF        .... on
   Start iteration      SOSCFMaxIt      ....   150
   Startup grad/error   SOSCFStart      ....  0.003300
   Hessian update       SOSCFHessUp     .... L-BFGS
 Level Shifting         CNVShift        .... on
   Level shift para.    LevelShift      ....    0.2500
   Turn off err/grad.   ShiftErr        ....    0.0010
 Zerner damping         CNVZerner       .... off
 Static damping         CNVDamp         .... on
   Fraction old density DampFac         ....    0.7000
   Max. Damping (<1)    DampMax         ....    0.9800
   Min. Damping (>=0)   DampMin         ....    0.0000
   Turn off err/grad.   DampErr         ....    0.1000

SCF Procedure:
 Maximum # iterations   MaxIter         ....   125
 SCF integral mode      SCFMode         .... Direct
   Integral package                     .... SHARK and LIBINT hybrid scheme
 Reset frequency        DirectResetFreq ....    20
 Integral Threshold     Thresh          ....  2.500e-11 Eh
 Primitive CutOff       TCut            ....  2.500e-12 Eh

Convergence Tolerance:
 Convergence Check Mode ConvCheckMode   .... Total+1el-Energy
 Convergence forced     ConvForced      .... 0
 Energy Change          TolE            ....  1.000e-08 Eh
 1-El. energy change                    ....  1.000e-05 Eh
 Orbital Gradient       TolG            ....  1.000e-05
 Orbital Rotation angle TolX            ....  1.000e-05
 DIIS Error             TolErr          ....  5.000e-07

------------------------------
INITIAL GUESS: MODEL POTENTIAL
------------------------------
Loading Hartree-Fock densities                     ... done
Calculating cut-offs                               ... done
Initializing the effective Hamiltonian             ... done
Setting up the integral package (SHARK)            ... done
Starting the Coulomb interaction                   ... done (   0.3 sec)
Making the grid                                    ... done (   0.3 sec)
Mapping shells                                     ... done
Starting the XC term evaluation                    ... done (   0.1 sec)
  promolecular density results
     # of electrons  =    169.983562980
     EX              =   -128.438576754
     EC              =     -5.698713193
     EX+EC           =   -134.137289947
Transforming the Hamiltonian                       ... done (   0.0 sec)
Diagonalizing the Hamiltonian                      ... done (   0.0 sec)
Back transforming the eigenvectors                 ... done (   0.0 sec)
Now organizing SCF variables                       ... done
                      ------------------
                      INITIAL GUESS DONE (   0.9 sec)
                      ------------------
             **** ENERGY FILE WAS UPDATED (input.en.tmp) ****
Finished Guess after   1.2 sec
Maximum memory used throughout the entire GUESS-calculation: 44.1 MB


           ************************************************************
           *        Program running with 24 parallel MPI-processes    *
           *              working on a common directory               *
           ************************************************************

-------------------------------------------------------------------------------------------
                                      ORCA LEAN-SCF
                              memory conserving SCF solver
-------------------------------------------------------------------------------------------

----------------------------------------D-I-I-S--------------------------------------------
Iteration    Energy (Eh)           Delta-E    RMSDP     MaxDP     DIISErr   Damp  Time(sec)
-------------------------------------------------------------------------------------------
               ***  Starting incremental Fock matrix formation  ***
    1    -914.2977829959841074     0.00e+00  1.35e-03  5.25e-02  1.57e-01  0.700   6.6
    2    -914.5233099786455568    -2.26e-01  1.07e-03  5.07e-02  9.43e-02  0.700   3.3
                               ***Turning on AO-DIIS***
    3    -914.6457197256313520    -1.22e-01  5.68e-04  2.65e-02  4.88e-02  0.700   3.1
    4    -914.7189389166728688    -7.32e-02  1.22e-03  4.99e-02  3.08e-02  0.000   2.9
    5    -914.8740414961130227    -1.55e-01  1.09e-04  4.79e-03  4.38e-03  0.000   3.1
                              *** Initializing SOSCF ***
---------------------------------------S-O-S-C-F--------------------------------------
Iteration    Energy (Eh)           Delta-E    RMSDP     MaxDP     MaxGrad    Time(sec)
--------------------------------------------------------------------------------------
    6    -914.8743741891739774    -3.33e-04  5.83e-05  2.32e-03  1.46e-03     2.8
               *** Restarting incremental Fock matrix formation ***
    7    -914.8743463715363760     2.78e-05  3.71e-05  1.37e-03  1.21e-03     6.4
    8    -914.8743726720990708    -2.63e-05  4.36e-05  1.76e-03  4.44e-04     4.3
    9    -914.8743793348853615    -6.66e-06  1.57e-05  5.16e-04  2.40e-04     4.3
   10    -914.8743820513223000    -2.72e-06  3.74e-06  1.54e-04  4.21e-05     4.0
   11    -914.8743821123357520    -6.10e-08  1.53e-06  5.98e-05  3.27e-05     3.5
   12    -914.8743821925818338    -8.02e-08  4.39e-07  1.42e-05  5.65e-06     3.0
   13    -914.8743821831089917     9.47e-09  1.88e-07  7.45e-06  3.42e-06     2.4
                 **** Energy Check signals convergence ****

               *****************************************************
               *                     SUCCESS                       *
               *           SCF CONVERGED AFTER  13 CYCLES          *
               *****************************************************

Recomputing exchange energy using gridx3       ... done (   11.024 sec)
Old exchange energy                            :    -43.974660572 Eh
New exchange energy                            :    -43.974712432 Eh
Exchange energy change after final integration :     -0.000051860 Eh
Total energy after final integration           :   -914.874434043 Eh
             **** ENERGY FILE WAS UPDATED (input.en.tmp) ****

----------------
TOTAL SCF ENERGY
----------------

Total Energy       :       -914.87443404277258 Eh          -24894.99899 eV

Components:
Nuclear Repulsion  :       2157.39968943372560 Eh           58705.83010 eV
Electronic Energy  :      -3072.27407161683459 Eh          -83600.82767 eV
One Electron Energy:      -5526.00267576132774 Eh         -150370.17748 eV
Two Electron Energy:       2453.72860414449315 Eh           66769.34981 eV

Virial components:
Potential Energy   :      -1823.28820292751743 Eh          -49614.19434 eV
Kinetic Energy     :        908.41376888474474 Eh           24719.19535 eV
Virial Ratio       :          2.00711202909877

DFT components:
N(Alpha)           :       85.000152798209 electrons
N(Beta)            :       85.000152798209 electrons
N(Total)           :      170.000305596418 electrons
E(XC)              :      -94.074761711458 Eh       

---------------
SCF CONVERGENCE
---------------

  Last Energy change         ...   -9.4728e-09  Tolerance :   1.0000e-08
  Last MAX-Density change    ...    7.4451e-06  Tolerance :   1.0000e-07
  Last RMS-Density change    ...    1.8842e-07  Tolerance :   5.0000e-09
  Last DIIS Error            ...    1.4625e-03  Tolerance :   5.0000e-07
  Last Orbital Gradient      ...    3.4240e-06  Tolerance :   1.0000e-05
  Last Orbital Rotation      ...    8.8273e-06  Tolerance :   1.0000e-05


----------------
ORBITAL ENERGIES
----------------

  NO   OCC          E(Eh)            E(eV) 
   0   2.0000     -14.507571      -394.7711 
   1   2.0000     -14.443224      -393.0201 
   2   2.0000     -10.344882      -281.4986 
   3   2.0000     -10.330247      -281.1003 
   4   2.0000     -10.329061      -281.0680 
   5   2.0000     -10.326390      -280.9954 
   6   2.0000     -10.303918      -280.3838 
   7   2.0000     -10.298144      -280.2267 
   8   2.0000     -10.292902      -280.0841 
   9   2.0000     -10.289043      -279.9791 
  10   2.0000     -10.280902      -279.7576 
  11   2.0000     -10.279879      -279.7297 
  12   2.0000     -10.278357      -279.6883 
  13   2.0000     -10.271809      -279.5101 
  14   2.0000     -10.271514      -279.5021 
  15   2.0000     -10.268209      -279.4122 
  16   2.0000     -10.267275      -279.3868 
  17   2.0000     -10.267274      -279.3867 
  18   2.0000     -10.265501      -279.3385 
  19   2.0000     -10.258394      -279.1451 
  20   2.0000     -10.257158      -279.1115 
  21   2.0000     -10.244270      -278.7608 
  22   2.0000      -6.756431      -183.8518 
  23   2.0000      -1.122682       -30.5497 
  24   2.0000      -1.046220       -28.4691 
  25   2.0000      -0.947355       -25.7789 
  26   2.0000      -0.937069       -25.4990 
  27   2.0000      -0.925700       -25.1896 
  28   2.0000      -0.912294       -24.8248 
  29   2.0000      -0.861835       -23.4517 
  30   2.0000      -0.855027       -23.2665 
  31   2.0000      -0.832482       -22.6530 
  32   2.0000      -0.818774       -22.2800 
  33   2.0000      -0.816824       -22.2269 
  34   2.0000      -0.802964       -21.8498 
  35   2.0000      -0.789999       -21.4970 
  36   2.0000      -0.786121       -21.3914 
  37   2.0000      -0.722090       -19.6491 
  38   2.0000      -0.701452       -19.0875 
  39   2.0000      -0.695582       -18.9277 
  40   2.0000      -0.682230       -18.5644 
  41   2.0000      -0.679415       -18.4878 
  42   2.0000      -0.670806       -18.2536 
  43   2.0000      -0.647478       -17.6188 
  44   2.0000      -0.627384       -17.0720 
  45   2.0000      -0.607512       -16.5312 
  46   2.0000      -0.586089       -15.9483 
  47   2.0000      -0.577460       -15.7135 
  48   2.0000      -0.571041       -15.5388 
  49   2.0000      -0.563212       -15.3258 
  50   2.0000      -0.560483       -15.2515 
[...]
139:   3092.68   0.003267   16.51  0.000330  ( 0.013043  0.011716 -0.004718)
140:   3093.86   0.007142   36.09  0.000720  (-0.003400 -0.003133  0.026438)
141:   3113.13   0.007919   40.02  0.000794  ( 0.015599  0.002329 -0.023347)
142:   3113.24   0.009982   50.45  0.001001  ( 0.027175 -0.007614  0.014288)
143:   3122.67   0.011060   55.89  0.001105  (-0.013275 -0.029615 -0.007211)
144:   3152.09   0.029254  147.84  0.002896  ( 0.036326  0.039319  0.005543)
145:   3161.11   0.002179   11.01  0.000215  (-0.003308  0.002460 -0.014075)
146:   3164.02   0.001623    8.20  0.000160  (-0.002945 -0.011605 -0.004086)
147:   3167.45   0.006261   31.64  0.000617  ( 0.006330 -0.003688  0.023732)
148:   3168.66   0.012655   63.96  0.001246  (-0.033451  0.008876  0.006971)
149:   3183.82   0.002758   13.94  0.000270  ( 0.012071  0.009625  0.005657)
150:   3190.50   0.004273   21.59  0.000418  (-0.013335  0.005390 -0.014527)
151:   3198.62   0.000405    2.05  0.000040  (-0.001133 -0.005696 -0.002414)
152:   3198.86   0.004693   23.71  0.000458  (-0.005289 -0.019068 -0.008137)
153:   3199.41   0.000434    2.19  0.000042  (-0.005867  0.002412  0.001452)
154:   3208.25   0.002563   12.95  0.000249  (-0.000711 -0.015754  0.000745)
155:   3211.84   0.002604   13.16  0.000253  (-0.012693 -0.008013 -0.005263)
156:   3222.04   0.005292   26.75  0.000513  (-0.021394 -0.004911  0.005549)
157:   3227.49   0.007705   38.94  0.000745  ( 0.017387 -0.020295 -0.005550)
158:   3266.55   0.001949    9.85  0.000186  ( 0.008917  0.009710  0.003520)
159:   3272.87   0.000219    1.11  0.000021  (-0.002829 -0.000133  0.003582)
160:   3286.18   0.000182    0.92  0.000017  ( 0.003264  0.002005 -0.001616)
161:   3307.65   0.000362    1.83  0.000034  (-0.000760 -0.005397 -0.002100)

* The epsilon (eps) is given for a Dirac delta lineshape.
** The dipole moment derivative (T) already includes vibrational overlap.

The first frequency considered to be a vibration is 6
The total number of vibrations considered is 156


--------------------------
THERMOCHEMISTRY AT 298.15K
--------------------------

Temperature         ...   298.15 K
Pressure            ...     1.00 atm
Total Mass          ...   310.29 AMU
Quasi RRHO          ...     True
Cut-Off Frequency   ...     1.00 cm^-1

Throughout the following assumptions are being made:
  (1) The electronic state is orbitally nondegenerate
  (2) There are no thermally accessible electronically excited states
  (3) Hindered rotations indicated by low frequency modes are not
      treated as such but are treated as vibrations and this may
      cause some error
  (4) All equations used are the standard statistical mechanics
      equations for an ideal gas
  (5) All vibrations are strictly harmonic

freq.      25.34  E(vib)   ...       0.56 
freq.      41.52  E(vib)   ...       0.54 
freq.      58.31  E(vib)   ...       0.51 
freq.      78.02  E(vib)   ...       0.49 
freq.      87.01  E(vib)   ...       0.48 
freq.      92.52  E(vib)   ...       0.47 
freq.     121.19  E(vib)   ...       0.44 
freq.     128.98  E(vib)   ...       0.43 
freq.     140.43  E(vib)   ...       0.41 
freq.     148.85  E(vib)   ...       0.40 
freq.     186.55  E(vib)   ...       0.37 
freq.     198.92  E(vib)   ...       0.35 
freq.     227.38  E(vib)   ...       0.33 
freq.     239.23  E(vib)   ...       0.31 
freq.     259.17  E(vib)   ...       0.30 
freq.     272.54  E(vib)   ...       0.29 
freq.     279.47  E(vib)   ...       0.28 
freq.     288.13  E(vib)   ...       0.27 
freq.     292.00  E(vib)   ...       0.27 
freq.     312.72  E(vib)   ...       0.25 
freq.     318.03  E(vib)   ...       0.25 
freq.     319.98  E(vib)   ...       0.25 
freq.     349.77  E(vib)   ...       0.23 
freq.     364.78  E(vib)   ...       0.22 
freq.     378.84  E(vib)   ...       0.21 
freq.     396.21  E(vib)   ...       0.20 
freq.     403.45  E(vib)   ...       0.19 
freq.     418.49  E(vib)   ...       0.18 
freq.     425.29  E(vib)   ...       0.18 
freq.     453.15  E(vib)   ...       0.16 
freq.     483.62  E(vib)   ...       0.15 
freq.     496.32  E(vib)   ...       0.14 
freq.     506.93  E(vib)   ...       0.14 
freq.     535.26  E(vib)   ...       0.13 
freq.     559.63  E(vib)   ...       0.12 
freq.     585.69  E(vib)   ...       0.11 
freq.     595.89  E(vib)   ...       0.10 
freq.     607.79  E(vib)   ...       0.10 
freq.     640.98  E(vib)   ...       0.09 
freq.     644.49  E(vib)   ...       0.09 
freq.     668.73  E(vib)   ...       0.08 
freq.     687.18  E(vib)   ...       0.07 
freq.     744.33  E(vib)   ...       0.06 
freq.     751.82  E(vib)   ...       0.06 
freq.     776.56  E(vib)   ...       0.05 
freq.     788.53  E(vib)   ...       0.05 
freq.     806.77  E(vib)   ...       0.05 
freq.     813.76  E(vib)   ...       0.05 
freq.     827.27  E(vib)   ...       0.04 
freq.     843.98  E(vib)   ...       0.04 
freq.     881.92  E(vib)   ...       0.04 
freq.     883.09  E(vib)   ...       0.04 
freq.     901.00  E(vib)   ...       0.03 
freq.     915.31  E(vib)   ...       0.03 
freq.     919.70  E(vib)   ...       0.03 
freq.     937.05  E(vib)   ...       0.03 
freq.     940.95  E(vib)   ...       0.03 
freq.     942.10  E(vib)   ...       0.03 
freq.     952.32  E(vib)   ...       0.03 
freq.     954.43  E(vib)   ...       0.03 
freq.     968.67  E(vib)   ...       0.03 
freq.     976.28  E(vib)   ...       0.03 
freq.     993.51  E(vib)   ...       0.02 
freq.    1000.44  E(vib)   ...       0.02 
freq.    1002.24  E(vib)   ...       0.02 
freq.    1016.05  E(vib)   ...       0.02 
freq.    1021.35  E(vib)   ...       0.02 
freq.    1027.71  E(vib)   ...       0.02 
freq.    1064.61  E(vib)   ...       0.02 
freq.    1073.98  E(vib)   ...       0.02 
freq.    1079.18  E(vib)   ...       0.02 
freq.    1087.48  E(vib)   ...       0.02 
freq.    1092.37  E(vib)   ...       0.02 
freq.    1105.30  E(vib)   ...       0.02 
freq.    1116.97  E(vib)   ...       0.01 
freq.    1122.13  E(vib)   ...       0.01 
freq.    1125.55  E(vib)   ...       0.01 
freq.    1127.94  E(vib)   ...       0.01 
freq.    1149.99  E(vib)   ...       0.01 
freq.    1158.04  E(vib)   ...       0.01 
freq.    1179.70  E(vib)   ...       0.01 
freq.    1184.89  E(vib)   ...       0.01 
freq.    1192.69  E(vib)   ...       0.01 
freq.    1223.94  E(vib)   ...       0.01 
freq.    1232.69  E(vib)   ...       0.01 
freq.    1234.54  E(vib)   ...       0.01 
freq.    1248.07  E(vib)   ...       0.01 
freq.    1261.70  E(vib)   ...       0.01 
freq.    1269.22  E(vib)   ...       0.01 
freq.    1294.64  E(vib)   ...       0.01 
freq.    1298.02  E(vib)   ...       0.01 
freq.    1305.34  E(vib)   ...       0.01 
freq.    1306.17  E(vib)   ...       0.01 
freq.    1315.21  E(vib)   ...       0.01 
freq.    1321.59  E(vib)   ...       0.01 
freq.    1337.50  E(vib)   ...       0.01 
freq.    1385.84  E(vib)   ...       0.00 
freq.    1408.23  E(vib)   ...       0.00 
freq.    1408.64  E(vib)   ...       0.00 
freq.    1415.12  E(vib)   ...       0.00 
freq.    1422.99  E(vib)   ...       0.00 
freq.    1430.33  E(vib)   ...       0.00 
freq.    1435.09  E(vib)   ...       0.00 
freq.    1442.57  E(vib)   ...       0.00 
freq.    1465.66  E(vib)   ...       0.00 
freq.    1482.14  E(vib)   ...       0.00 
freq.    1485.84  E(vib)   ...       0.00 
freq.    1493.76  E(vib)   ...       0.00 
freq.    1495.88  E(vib)   ...       0.00 
freq.    1498.65  E(vib)   ...       0.00 
freq.    1500.68  E(vib)   ...       0.00 
freq.    1505.62  E(vib)   ...       0.00 
freq.    1507.14  E(vib)   ...       0.00 
freq.    1509.80  E(vib)   ...       0.00 
freq.    1514.67  E(vib)   ...       0.00 
freq.    1517.74  E(vib)   ...       0.00 
freq.    1519.97  E(vib)   ...       0.00 
freq.    1524.19  E(vib)   ...       0.00 
freq.    1527.45  E(vib)   ...       0.00 
freq.    1536.97  E(vib)   ...       0.00 
freq.    1537.34  E(vib)   ...       0.00 
freq.    1541.92  E(vib)   ...       0.00 
freq.    1632.94  E(vib)   ...       0.00 
freq.    1651.08  E(vib)   ...       0.00 
freq.    1679.91  E(vib)   ...       0.00 
freq.    2488.12  E(vib)   ...       0.00 
freq.    2574.93  E(vib)   ...       0.00 
freq.    3056.55  E(vib)   ...       0.00 
freq.    3058.65  E(vib)   ...       0.00 
freq.    3073.09  E(vib)   ...       0.00 
freq.    3084.57  E(vib)   ...       0.00 
freq.    3086.48  E(vib)   ...       0.00 
freq.    3089.85  E(vib)   ...       0.00 
freq.    3092.68  E(vib)   ...       0.00 
freq.    3093.86  E(vib)   ...       0.00 
freq.    3113.13  E(vib)   ...       0.00 
freq.    3113.24  E(vib)   ...       0.00 
freq.    3122.67  E(vib)   ...       0.00 
freq.    3152.09  E(vib)   ...       0.00 
freq.    3161.11  E(vib)   ...       0.00 
freq.    3164.02  E(vib)   ...       0.00 
freq.    3167.45  E(vib)   ...       0.00 
freq.    3168.66  E(vib)   ...       0.00 
freq.    3183.82  E(vib)   ...       0.00 
freq.    3190.50  E(vib)   ...       0.00 
freq.    3198.62  E(vib)   ...       0.00 
freq.    3198.86  E(vib)   ...       0.00 
freq.    3199.41  E(vib)   ...       0.00 
freq.    3208.25  E(vib)   ...       0.00 
freq.    3211.84  E(vib)   ...       0.00 
freq.    3222.04  E(vib)   ...       0.00 
freq.    3227.49  E(vib)   ...       0.00 
freq.    3266.55  E(vib)   ...       0.00 
freq.    3272.87  E(vib)   ...       0.00 
freq.    3286.18  E(vib)   ...       0.00 
freq.    3307.65  E(vib)   ...       0.00 

------------
INNER ENERGY
------------

The inner energy is: U= E(el) + E(ZPE) + E(vib) + E(rot) + E(trans)
    E(el)   - is the total energy from the electronic structure calculation
              = E(kin-el) + E(nuc-el) + E(el-el) + E(nuc-nuc)
    E(ZPE)  - the the zero temperature vibrational energy from the frequency calculation
    E(vib)  - the the finite temperature correction to E(ZPE) due to population
              of excited vibrational states
    E(rot)  - is the rotational thermal energy
    E(trans)- is the translational thermal energy

Summary of contributions to the inner energy U:
Electronic energy                ...   -914.92028537 Eh
Zero point energy                ...      0.48235365 Eh     302.68 kcal/mol
Thermal vibrational correction   ...      0.01978629 Eh      12.42 kcal/mol
Thermal rotational correction    ...      0.00141627 Eh       0.89 kcal/mol
Thermal translational correction ...      0.00141627 Eh       0.89 kcal/mol
-----------------------------------------------------------------------
Total thermal energy                   -914.41531288 Eh


Summary of corrections to the electronic energy:
(perhaps to be used in another calculation)
Total thermal correction                  0.02261884 Eh      14.19 kcal/mol
Non-thermal (ZPE) correction              0.48235365 Eh     302.68 kcal/mol
-----------------------------------------------------------------------
Total correction                          0.50497249 Eh     316.87 kcal/mol


--------
ENTHALPY
--------

The enthalpy is H = U + kB*T
                kB is Boltzmann's constant
Total thermal energy              ...   -914.41531288 Eh 
Thermal Enthalpy correction       ...      0.00094421 Eh       0.59 kcal/mol
-----------------------------------------------------------------------
Total Enthalpy                    ...   -914.41436867 Eh


Note: Only C1 symmetry has been detected, increase convergence thresholds 
      if your molecule has a higher symmetry. Symmetry factor of 1.0 is   
      used for the rotational entropy correction. 
 

Note: Rotational entropy computed according to Herzberg 
Infrared and Raman Spectra, Chapter V,1, Van Nostrand Reinhold, 1945 
Point Group:  C1, Symmetry Number:   1  
Rotational constants in cm-1:     0.011209     0.008184     0.006496 

Vibrational entropy computed according to the QRRHO of S. Grimme
Chem.Eur.J. 2012 18 9955 using a reference frequency of 100.0 cm-1


-------
ENTROPY
-------

The entropy contributions are T*S = T*(S(el)+S(vib)+S(rot)+S(trans))
     S(el)   - electronic entropy
     S(vib)  - vibrational entropy
     S(rot)  - rotational entropy
     S(trans)- translational entropy
The entropies will be listed as multiplied by the temperature to get
units of energy

Electronic entropy                ...      0.00000000 Eh      0.00 kcal/mol
Vibrational entropy               ...      0.03395339 Eh     21.31 kcal/mol
Rotational entropy                ...      0.01627736 Eh     10.21 kcal/mol
Translational entropy             ...      0.02047495 Eh     12.85 kcal/mol
-----------------------------------------------------------------------
Final entropy term                ...      0.07070570 Eh     44.37 kcal/mol

In case the symmetry of your molecule has not been determined correctly
or in case you have a reason to use a different symmetry number we print 
out the resulting rotational entropy values for sn=1,12:

 non-linear molecules -----------------------------------
|  sn= 1 | S(rot)=       0.01627736 Eh     10.21 kcal/mol|
|  sn= 2 | S(rot)=       0.01562290 Eh      9.80 kcal/mol|
|  sn= 3 | S(rot)=       0.01524007 Eh      9.56 kcal/mol|
|  sn= 4 | S(rot)=       0.01496844 Eh      9.39 kcal/mol|
|  sn= 5 | S(rot)=       0.01475776 Eh      9.26 kcal/mol|
|  sn= 6 | S(rot)=       0.01458561 Eh      9.15 kcal/mol|
|  sn= 7 | S(rot)=       0.01444007 Eh      9.06 kcal/mol|
|  sn= 8 | S(rot)=       0.01431399 Eh      8.98 kcal/mol|
|  sn= 9 | S(rot)=       0.01420278 Eh      8.91 kcal/mol|
|  sn=10 | S(rot)=       0.01410330 Eh      8.85 kcal/mol|
|  sn=11 | S(rot)=       0.01401331 Eh      8.79 kcal/mol|
|  sn=12 | S(rot)=       0.01393116 Eh      8.74 kcal/mol|
 linear molecules ---------------------------------------
|  Dinfh | S(rot)=       0.01008124 Eh      6.33 kcal/mol|
|  Cinfv | S(rot)=       0.01073570 Eh      6.74 kcal/mol|
 --------------------------------------------------------


-------------------
GIBBS FREE ENERGY
-------------------

The Gibbs free energy is G = H - T*S

Total enthalpy                    ...   -914.41436867 Eh 
Total entropy correction          ...     -0.07070570 Eh    -44.37 kcal/mol
-----------------------------------------------------------------------
Final Gibbs free energy         ...   -914.48507437 Eh

For completeness - the Gibbs free energy minus the electronic energy
G-E(el)                           ...      0.43521100 Eh    273.10 kcal/mol


Maximum memory used throughout the entire PROP-calculation: 390.2 MB

--------------------------------
SUGGESTED CITATIONS FOR THIS RUN
--------------------------------

Below you find a list of papers that are relevant to this ORCA run
We neither can nor want to force you to cite these papers, but we appreciate if you do
You receive ORCA, which is the product of decades of hard work by many enthusiastic individuals, for free
The only thing we kindly ask in return is that you cite our papers,
We deeply appreciate it, if you show your appreciation for ORCA by not just citing the generic ORCA reference.

Please note that relegating all ORCA citations to the supporting information does *not* help us.
SI sections are not indexed - citations you put there will not count into any citation statistics
But we need these citations in order to attract the funding resources that allow us to do what we are doing

Therefore, if you are a happy ORCA user, please consider citing a few of the papers listed below in the main body of your paper

In addition to the list printed below, the program has created the file input.bibtex that contains the list in bibtex format
You can import this file easily into all common literature databanks and citation aid programs


List of essential papers. We consider these as the minimum necessary citations

  1. Neese,F.
     Software update: the ORCA program system, version 5.0
     WIRES Comput. Molec. Sci., 2022 12(1)e1606
     doi.org/10.1002/wcms.1606

List of papers to cite with high priority. The work reported in these papers was absolutely
necessary for this run to complete.
Our perspective: the developers of density functionals and basis sets usually get cited in chemistry papers
Good! But without the algorithms to do something with them, the functionals or basis sets would not do anything.
Hence, in our opinion, the algorithm design and method developments papers are equally worthy of getting cited

  1. Neese,F.
     An improvement of the resolution of the identity approximation for the formation of the Coulomb matrix
     J. Comp. Chem., 2003 24(14)1740-1747
     doi.org/10.1002/jcc.10318
  2. Neese,F.; Wennmohs,F.; Hansen,A.; Becker,U.
     Efficient, approximate and parallel Hartree-Fock and hybrid DFT calculations. A 'chain-of-spheres' algorithm for the Hartree-Fock exchange
     Chem. Phys., 2009 356(1-3)98-109
     doi.org/10.1016/j.chemphys.2008.10.036
  3. Bykov,D.; Petrenko,T.; Izsak,R.; Kossmann,S.; Becker,U.; Valeev,E.; Neese,F.
     Efficient implementation of the analytic second derivatives of Hartree-Fock and hybrid DFT energies: a detailed analysis of different approximations
     Molec. Phys., 2015 113 1961-1977
     doi.org/10.1080/00268976.2015.1025114
  4. Helmich-Paris,B.; de Souza,B.; Neese,F.; Izsák,R.
     An improved chain of spheres for exchange algorithm
     J. Chem. Phys., 2021 155 104109
     doi.org/doi: 10.1063/5.0058766.
  5. Neese,F.
     The SHARK Integral Generation and Digestion System
     J. Comp. Chem., 2022  1-16
     doi.org/10.1002/jcc.26942
  6. Grimme,S.; Antony,J.; Ehrlich,S.; Krieg,H.
     A consistent and accurate ab initio parametrization of density functional dispersion correction (DFT-D) for the 94 elements H-Pu
     J. Chem. Phys., 2010 132 154104
     doi.org/10.1063/1.3382344

List of suggested additional citations. These are papers that are important in the 'surrounding' of 
of this run, or papers that preceded the highly important papers. If you like your results we are grateful for a citation.

  1. Izsak,R.; Neese,F.
     An overlap fitted chain of spheres exchange method
     J. Chem. Phys., 2011 135 144105
     doi.org/10.1063/1.3646921
  2. Izsak,R.; Hansen,A.; Neese,F.
     The resolution of identity and chain of spheres approximations for the LPNO-CCSD singles Fock term
     Molec. Phys., 2012 110 2413-2417
     doi.org/10.1080/00268976.2012.687466
  3. Neese,F.
     The ORCA program system
     WIRES Comput. Molec. Sci., 2012 2(1)73-78
     doi.org/10.1002/wcms.81
  4. Izsak,R.; Neese,F.; Klopper,W.
     Robust fitting techniques in the chain of spheres approximation to the Fock exchange: The role of the complementary space
     J. Chem. Phys., 2013 139 
     doi.org/10.1063/1.4819264
  5. Neese,F.
     Software update: the ORCA program system, version 4.0
     WIRES Comput. Molec. Sci., 2018 8(1)1-6
     doi.org/10.1002/wcms.1327
  6. Neese,F.; Wennmohs,F.; Becker,U.; Riplinger,C.
     The ORCA quantum chemistry program package
     J. Chem. Phys., 2020 152 Art. No. L224108
     doi.org/10.1063/5.0004608

List of optional additional citations

  1. Neese,F.
     Approximate second-order SCF convergence for spin unrestricted wavefunctions
     Chem. Phys. Lett., 2000 325(1-3)93-98
     doi.org/10.1016/s0009-2614(00)00662-x

Timings for individual modules:

Sum of individual times          ...     2419.080 sec (=  40.318 min)
Startup calculation              ...      121.123 sec (=   2.019 min)   5.0 %
SCF iterations                   ...     1221.311 sec (=  20.355 min)  50.5 %
Property integrals               ...      160.500 sec (=   2.675 min)   6.6 %
SCF Response                     ...      253.395 sec (=   4.223 min)  10.5 %
Property calculations            ...      236.639 sec (=   3.944 min)   9.8 %
SCF Gradient evaluation          ...      424.928 sec (=   7.082 min)  17.6 %
Geometry relaxation              ...        1.183 sec (=   0.020 min)   0.0 %
                             ****ORCA TERMINATED NORMALLY****
TOTAL RUN TIME: 0 days 0 hours 53 minutes 47 seconds 521 msec
