
                                 *****************
                                 * O   R   C   A *
                                 *****************

                                            #,                                       
                                            ###                                      
                                            ####                                     
                                            #####                                    
                                            ######                                   
                                           ########,                                 
                                     ,,################,,,,,                         
                               ,,#################################,,                 
                          ,,##########################################,,             
                       ,#########################################, ''#####,          
                    ,#############################################,,   '####,        
                  ,##################################################,,,,####,       
                ,###########''''           ''''###############################       
              ,#####''   ,,,,##########,,,,          '''####'''          '####       
            ,##' ,,,,###########################,,,                        '##       
           ' ,,###''''                  '''############,,,                           
         ,,##''                                '''############,,,,        ,,,,,,###''
      ,#''                                            '''#######################'''  
     '                                                          ''''####''''         
             ,#######,   #######,   ,#######,      ##                                
            ,#'     '#,  ##    ##  ,#'     '#,    #''#        ,####,   ,####,        
            ##       ##  ##   ,#'  ##            #'  '#       #'       #'  '#        
            ##       ##  #######   ##           ,######,      #####,   #    #        
            '#,     ,#'  ##    ##  '#,     ,#' ,#      #,     #,   #   #,  ,#        
             '#######'   ##     ##  '#######'  #'      '#     '####' # '####'        



                #########################################################
                #                        -***-                          #
                #          Department of theory and spectroscopy        #
                #                                                       #
                #                      Frank Neese                      #
                #                                                       #
                #     Directorship, Architecture, Infrastructure        #
                #                    SHARK, DRIVERS                     #
                #        Core code/Algorithms in most modules           #
                #                                                       #
                #        Max Planck Institute fuer Kohlenforschung      #
                #                Kaiser Wilhelm Platz 1                 #
                #                 D-45470 Muelheim/Ruhr                 #
                #                      Germany                          #
                #                                                       #
                #                  All rights reserved                  #
                #                        -***-                          #
                #########################################################


                         Program Version 6.0.1  -  RELEASE   -


 With contributions from (in alphabetic order):
[Max-Planck-Institut fuer Kohlenforschung]                               
  Daniel Aravena         : Magnetic Suceptibility                        
  Michael Atanasov       : Ab Initio Ligand Field Theory (pilot matlab implementation)
  Alexander A. Auer      : GIAO ZORA, VPT2 properties, NMR spectrum      
  Ute Becker             : All parallelization in ORCA, NUMFREQ, NUMCALC 
  Giovanni Bistoni       : ED, misc. LED, open-shell LED, HFLD           
  Martin Brehm           : Molecular dynamics                            
  Dmytro Bykov           : pre 5.0 version of the SCF Hessian            
  Marcos Casanova-Páez   : Triplet and SCS-CIS(D). UHF-(DLPNO)-IP/EA/STEOM-CCSD. UHF-CVS-IP/STEOM-CCSD   
  Vijay G. Chilkuri      : MRCI spin determinant printing, contributions to CSF-ICE 
  Pauline Colinet        : FMM embedding                                 
  Dipayan Datta          : RHF DLPNO-CCSD density                        
  Achintya Kumar Dutta   : EOM-CC, STEOM-CC                              
  Nicolas Foglia         : Exact transition moments, OPA infrastructure, MCD improvements    
  Dmitry Ganyushin       : Spin-Orbit,Spin-Spin,Magnetic field MRCI      
  Miquel Garcia-Rates    : C-PCM and meta-GGA Hessian, CCSD/C-PCM, Gaussian charge scheme 
  Tiago L. C. Gouveia    : GS-ROHF, GS-ROCIS                             
  Yang Guo               : DLPNO-NEVPT2, F12-NEVPT2, CIM, IAO-localization        
  Andreas Hansen         : Spin unrestricted coupled pair/coupled cluster methods 
  Ingolf Harden          : AUTO-CI MPn and infrastructure                
  Benjamin Helmich-Paris : MC-RPA, TRAH-(SCF,CASSCF), AVAS, COSX integrals, SCF dyn. polar. 
  Lee Huntington         : MR-EOM, pCC                                   
  Robert Izsak           : Overlap fitted RIJCOSX, COSX-SCS-MP3, EOM     
  Riya Kayal             : Wick's Theorem for AUTO-CI, AUTO-CI UHF-CCSDT 
  Emily Kempfer          : AUTO-CI, RHF CISDT and CCSDT                  
  Christian Kollmar      : KDIIS, OOCD, Brueckner-CCSD(T), CCSD density, CASPT2, CASPT2-K, improved NEVPT2 
  Axel Koslowski         : Symmetry handling                             
  Simone Kossmann        : meta-GGA functionals, TD-DFT gradient, OOMP2, (MP2 Hessian; deprecated post 5.0) 
  Lucas Lang             : DCDCAS                                        
  Marvin Lechner         : AUTO-CI (C++ implementation), FIC-MRCC        
  Spencer Leger          : CASSCF response                               
  Dagmar Lenk            : GEPOL surface, SMD, ORCA-2-JSON               
  Dimitrios Liakos       : Extrapolation schemes; Compound Job, initial MDCI parallelization 
  Dimitrios Manganas     : Further ROCIS development; embedding schemes. LFT, Crystal Embedding 
  Dimitrios Pantazis     : SARC Basis sets                               
  Anastasios Papadopoulos: AUTO-CI, single reference methods and gradients 
  Taras Petrenko         : pre 6.0 DFT Hessian and TD-DFT gradient, (ASA, deprecated), ECA, 1-Electron XAS/XES, NRVS 
  Peter Pinski           : DLPNO-MP2, DLPNO-MP2 Gradient                 
  Christoph Reimann      : Effective Core Potentials                     
  Marius Retegan         : Local ZFS, SOC                                
  Christoph Riplinger    : Optimizer, TS searches, QM/MM, DLPNO-CCSD(T), (RO)-DLPNO pert. Triples 
  Michael Roemelt        : Original ROCIS implementation                 
  Masaaki Saitow         : Open-shell DLPNO-CCSD energy and density      
  Barbara Sandhoefer     : DKH picture change effects                    
  Kantharuban Sivalingam : CASSCF convergence/infrastructure, NEVPT2 and variants, FIC-MRCI 
  Bernardo de Souza      : ESD, SOC TD-DFT                               
  Georgi L. Stoychev     : AutoAux, RI-MP2 NMR, DLPNO-MP2 response, X2C  
  Van Anh Tran           : RI-MP2 g-tensors                              
  Willem Van den Heuvel  : Paramagnetic NMR                              
  Zikuan Wang            : NOTCH, Electric field optimization            
  Frank Wennmohs         : Technical directorship and infrastructure     
  Hang Xu                : AUTO-CI-Response properties                   
                                                                         
[FACCTs GmbH]                                                            
  Markus Bursch, Miquel Garcia-Rates, Christoph Riplinger, Bernardo de Souza, Georgi L. Stoychev 
                                                                 
  APM, Basis sets (HGBS, AHGBS, def-TZVP (Ac-Lr), def2-XVPD (La-Lu)), CI-OPT, improved COSX, DLPNO-Multilevel,           
  DOCKER, DRACO, updates on ESD, GOAT, IRC, LR-CPCM, MBIS, meta-GGA TD-DFT gradient, ML-optimized integration grids, 
  MM, NACMEs, nearIR, NEB, NEB-TS, NL-DFT gradient (VV10), 2- and 3-layer-ONIOM, interface openCOSMO-RS, QMMM,   
  Crystal-QMMM, SF, symmetry and pop. for TD-DFT, r2SCAN hybrids, SOLVATOR                                   
                                                                         
[Other institutions]                                                     
  V. Asgeirsson          : NEB                                           
  Christoph Bannwarth    : sTDA-DFT, sTD-DFT, PBEh-3c, B97-3c, D3        
  Sebastian Ehlert       : rSCAN, r2SCAN, r2SCAN-3c, D4, dhf basis sets  
  Marvin Friede          : D4 for Fr, Ra, Ac-Lr                          
  Lars Goerigk           : TD-DFT with DH, B97 family of functionals     
  Stefan Grimme          : VdW corrections, initial TS optimization, DFT functionals, gCP, sTDA/sTD-DF 
  Waldemar Hujo          : DFT-NL                                        
  H. Jonsson             : NEB                                           
  Holger Kruse           : gCP                                           
  Marcel Mueller         : wB97X-3c, vDZP basis set                      
  Hagen Neugebauer       : wr2SCAN                                       
  Tobias Risthaus        : range-separated hybrid DFT                    
  Lukas Wittmann         : regularized MP2, r2SCAN double-hybrids, wr2SCAN        
                                                                         
We gratefully acknowledge several colleagues who have allowed us to      
interface, adapt or use parts of their codes:                            
  Ed Valeev, F. Pavosevic, A. Kumar             : LibInt (2-el integral package), F12 methods 
  Garnet Chan, S. Sharma, J. Yang, R. Olivares  : DMRG                   
  Ulf Ekstrom                                   : XCFun DFT Library      
  Mihaly Kallay                                 : mrcc  (arbitrary order and MRCC methods)
  Frank Weinhold                                : gennbo (NPA and NBO analysis)           
  Simon Mueller                                 : openCOSMO-RS                            
  Christopher J. Cramer and Donald G. Truhlar   : smd solvation model                     
  S Lehtola, MJT Oliveira, MAL Marques          : LibXC Library                           
  Liviu Ungur et al                             : ANISO software                          


 Your calculation uses the libint2 library for the computation of 2-el integrals
 For citations please refer to: http://libint.valeyev.net

 Your ORCA version has been built with support for libXC version: 6.2.2
 For citations please refer to: https://libxc.gitlab.io

 This ORCA versions uses:
   CBLAS   interface :  Fast vector & matrix operations
   LAPACKE interface :  Fast linear algebra routines
   SCALAPACK package :  Parallel linear algebra routines
   Shared memory     :  Shared parallel matrices
   BLAS/LAPACK       :  OpenBLAS 0.3.27  USE64BITINT DYNAMIC_ARCH NO_AFFINITY Haswell SINGLE_THREADED
        Core in use  :  Haswell
   Copyright (c) 2011-2014, The OpenBLAS Project


NOTE: MaxCore=2560 MB was set to SCF,MP2,MDCI,CIPSI,MRCI and CIS
      => If you want to overwrite this, your respective input block should be placed after the MaxCore statement
Your calculation utilizes the atom-pairwise dispersion correction
with the zero-damping scheme (D30)


XCFun DFT library Copyright 2009-2010 Ulf Ekstrom and contributors.
See http://admol.org/xcfun for more information.
This is free software; see the source code for copying conditions.
There is ABSOLUTELY NO WARRANTY; not even for MERCHANTABILITY or FITNESS FOR A PARTICULAR PURPOSE.
For details see the documentation.
Scientific users of this library should cite U. Ekstrom, L. Visscher, R. Bast, A. J. Thorvaldsen and K. Ruud;
J.Chem.Theor.Comp. 2010, DOI: 10.1021/ct100117s
XCFun Version 0.99 

Warning: RI is on but no J-basis has been assigned. Assigning Def2/J (nothing to worry about!)
================================================================================

----- Orbital basis set information -----
Your calculation utilizes the basis: 6-31G**
   H-He, Li-Ne : W. J. Hehre, R. Ditchfield and J.A. Pople, J. Chem. Phys. 56, 2257 (1972).
                 Note: He and Ne are unpublished basis sets taken from the Gaussian program.
                 Note: Li and B from J. D. Dill and J. A. Pople, J. Chem. Phys. 62, 2921 (1975).
   Na - Ar     : M. M. Francl, W. J. Pietro, W. J. Hehre, J. S. Binkley, M. S. Gordon, 
                 D. J. DeFrees and J. A. Pople, J. Chem. Phys. 77, 3654 (1982).
   K - Zn      : V. A. Rassolov, J. A. Pople, M. A. Ratner, and T. L. Windus, J. Chem. Phys. 109, 1223 (1998).

----- AuxJ basis set information -----
Your calculation utilizes the auxiliary basis: def2/J
   F. Weigend, Phys. Chem. Chem. Phys. 8, 1057 (2006).

================================================================================
                                        WARNINGS
                       Please study these warnings very carefully!
================================================================================

WARNING: SinglePoint found together with IRC
         Switching on EnGrad - energy plus gradient calculation

================================================================================
                                       INPUT FILE
================================================================================
NAME = input.inp
|  1> # Automatically generated ORCA input
|  2> 
|  3> # Number of cores
|  4> %pal nprocs 24 end
|  5> # RAM per core
|  6> %maxcore 2560
|  7> 
|  8> ! wB97X-D3 
|  9> ! 6-31G** 
| 10> ! TightSCF 
| 11> ! Freq 
| 12> ! NoSym 
| 13> ! IRC 
| 14> 
| 15> %geom
| 16>     Calc_Hess true
| 17>     end
| 18> 
| 19> %geom
| 20>   Calc_Hess true
| 21> end
| 22> 
| 23> 
| 24> *xyz 0 1 
| 25> H         1.51627700     -0.31114800      2.95139900
| 26> C         2.25023900     -0.17078700      2.16386700
| 27> C         2.87073500      1.06275100      2.00309300
| 28> C         2.57639400     -1.22485600      1.31591800
| 29> C         3.81980200      1.28840200      0.99742500
| 30> H         2.61281000      1.87620100      2.67614200
| 31> C         3.51922000     -1.03168800      0.31390900
| 32> H         2.09984900     -2.19301100      1.43399900
| 33> C         4.13275800      0.21160400      0.15234500
| 34> H         3.77543700     -1.85068400     -0.35211500
| 35> B         4.41951600      2.75273300      0.83944400
| 36> H         5.71626300      2.00214700     -0.14480000
| 37> H         5.93294300      2.64590100      0.26907200
| 38> C         3.70424300      3.70941400     -0.16197500
| 39> C         2.54472600      3.49251600     -0.89413400
| 40> C         2.22717300      4.67450000     -1.60057000
| 41> H         1.97941100      2.56998700     -0.88097100
| 42> C         3.20433700      5.59312000     -1.28745400
| 43> H         1.38328700      4.84520900     -2.25318400
| 44> H         3.34353100      6.61324500     -1.61690100
| 45> N         4.08134100      5.01669500     -0.41607300
| 46> C         5.27367800      5.65299500      0.09775900
| 47> H         5.35497900      5.49027000      1.17449300
| 48> H         6.17491900      5.25875800     -0.38380600
| 49> H         5.21732000      6.72620000     -0.09161900
| 50> N         5.11891800      0.42215600     -0.88034400
| 51> H         4.94124700      3.22797400      1.81829100
| 52> C         4.52982900      0.67744600     -2.19285100
| 53> H         5.31757300      0.98217400     -2.88884100
| 54> H         4.02859000     -0.21433500     -2.60300700
| 55> H         3.80650700      1.49009900     -2.11492800
| 56> C         6.16052500     -0.59420100     -0.93692800
| 57> H         5.80741700     -1.55913200     -1.33472500
| 58> H         6.96637300     -0.24103200     -1.58784300
| 59> H         6.56670100     -0.75816100      0.06348200
| 60> *
| 61> 
| 62> 
| 63>                          ****END OF INPUT****
================================================================================

                     *******************************
                     * Energy+Gradient Calculation *
                     *******************************

---------------------------------
CARTESIAN COORDINATES (ANGSTROEM)
---------------------------------
  H      1.516277   -0.311148    2.951399
  C      2.250239   -0.170787    2.163867
  C      2.870735    1.062751    2.003093
  C      2.576394   -1.224856    1.315918
  C      3.819802    1.288402    0.997425
  H      2.612810    1.876201    2.676142
  C      3.519220   -1.031688    0.313909
  H      2.099849   -2.193011    1.433999
  C      4.132758    0.211604    0.152345
  H      3.775437   -1.850684   -0.352115
  B      4.419516    2.752733    0.839444
  H      5.716263    2.002147   -0.144800
  H      5.932943    2.645901    0.269072
  C      3.704243    3.709414   -0.161975
  C      2.544726    3.492516   -0.894134
  C      2.227173    4.674500   -1.600570
  H      1.979411    2.569987   -0.880971
  C      3.204337    5.593120   -1.287454
  H      1.383287    4.845209   -2.253184
  H      3.343531    6.613245   -1.616901
  N      4.081341    5.016695   -0.416073
  C      5.273678    5.652995    0.097759
  H      5.354979    5.490270    1.174493
  H      6.174919    5.258758   -0.383806
  H      5.217320    6.726200   -0.091619
  N      5.118918    0.422156   -0.880344
  H      4.941247    3.227974    1.818291
  C      4.529829    0.677446   -2.192851
  H      5.317573    0.982174   -2.888841
  H      4.028590   -0.214335   -2.603007
  H      3.806507    1.490099   -2.114928
  C      6.160525   -0.594201   -0.936928
  H      5.807417   -1.559132   -1.334725
  H      6.966373   -0.241032   -1.587843
  H      6.566701   -0.758161    0.063482

----------------------------
CARTESIAN COORDINATES (A.U.)
----------------------------
  NO LB      ZA    FRAG     MASS         X           Y           Z
   0 H     1.0000    0     1.008    2.865348   -0.587985    5.577336
   1 C     6.0000    0    12.011    4.252335   -0.322741    4.089116
   2 C     6.0000    0    12.011    5.424903    2.008308    3.785297
   3 C     6.0000    0    12.011    4.868679   -2.314642    2.486725
   4 C     6.0000    0    12.011    7.218380    2.434727    1.884860
   5 H     1.0000    0     1.008    4.937495    3.545506    5.057175
   6 C     6.0000    0    12.011    6.650362   -1.949608    0.593202
   7 H     1.0000    0     1.008    3.968140   -4.144190    2.709865
   8 C     6.0000    0    12.011    7.809781    0.399874    0.287890
   9 H     1.0000    0     1.008    7.134542   -3.497286   -0.665401
  10 B     5.0000    0    10.810    8.351675    5.201911    1.586319
  11 H     1.0000    0     1.008   10.802172    3.783510   -0.273632
  12 H     1.0000    0     1.008   11.211637    5.000028    0.508472
  13 C     6.0000    0    12.011    7.000005    7.009777   -0.306088
  14 C     6.0000    0    12.011    4.808835    6.599899   -1.689668
  15 C     6.0000    0    12.011    4.208747    8.833525   -3.024639
  16 H     1.0000    0     1.008    3.740545    4.856572   -1.664794
  17 C     6.0000    0    12.011    6.055319   10.569465   -2.432935
  18 H     1.0000    0     1.008    2.614034    9.156118   -4.257901
  19 H     1.0000    0     1.008    6.318358   12.497222   -3.055500
  20 N     7.0000    0    14.007    7.712617    9.480180   -0.786264
  21 C     6.0000    0    12.011    9.965807   10.682612    0.184738
  22 H     1.0000    0     1.008   10.119444   10.375107    2.219470
  23 H     1.0000    0     1.008   11.668906    9.937612   -0.725288
  24 H     1.0000    0     1.008    9.859306   12.710676   -0.173135
  25 N     7.0000    0    14.007    9.673353    0.797759   -1.663609
  26 H     1.0000    0     1.008    9.337604    6.099987    3.436072
  27 C     6.0000    0    12.011    8.560136    1.280187   -4.143888
  28 H     1.0000    0     1.008   10.048757    1.856040   -5.459118
  29 H     1.0000    0     1.008    7.612932   -0.405034   -4.918970
  30 H     1.0000    0     1.008    7.193256    2.815879   -3.996635
  31 C     6.0000    0    12.011   11.641705   -1.122877   -1.770537
  32 H     1.0000    0     1.008   10.974428   -2.946332   -2.522265
  33 H     1.0000    0     1.008   13.164537   -0.455484   -3.000588
  34 H     1.0000    0     1.008   12.409266   -1.432717    0.119964

--------------------------------
INTERNAL COORDINATES (ANGSTROEM)
--------------------------------
 H      0   0   0     0.000000000000     0.00000000     0.00000000
 C      1   0   0     1.085637176403     0.00000000     0.00000000
 C      2   1   0     1.390136526581   120.02559742     0.00000000
 C      2   1   3     1.391566041331   120.16893295   179.76942743
 C      3   2   1     1.401076254354   121.88939775   180.22113528
 H      3   2   1     1.086839990305   119.11686546     0.20722423
 C      4   2   1     1.389336812505   119.55171846   180.11579496
 H      4   2   1     1.085524004162   120.42394019     0.07873931
 C      7   4   2     1.395817610150   120.37194779   359.72028188
 H      7   4   2     1.086273247245   119.83034330   180.15085519
 B      5   3   2     1.590245313063   118.36364171   176.75603439
 H     11   5   3     1.792670738574    86.66306926   163.97005295
 H     12  11   5     0.795398935943    64.69110995   211.26486050
 C     11   5   3     1.558747578619   117.12448662   267.61745679
 C     14  11   5     1.388373586962   128.76666869     4.40387890
 C     15  14  11     1.413144686917   108.70085272   176.15030737
 H     15  14  11     1.082041621027   124.27123534   357.99914255
 C     16  15  14     1.377226857403   106.54728340     0.13489736
 H     16  15  14     1.080365760598   127.56529834   180.73331660
 H     18  16  15     1.081001994018   130.65601130   179.41231997
 N     18  16  15     1.364077213284   108.63519538   359.37439763
 C     21  18  16     1.445879848325   124.83661941   177.30914873
 H     22  21  18     1.091991476607   110.25682423   134.83755668
 H     22  21  18     1.095245635223   111.34055397   255.42411793
 H     22  21  18     1.091242055216   109.18026471    15.41592354
 N      9   7   4     1.443360752212   120.86866151   179.66094292
 H     11   5   3     1.206730580474   116.43021810    56.28338808
 C     26   9   7     1.461120617564   113.12416687    81.32157193
 H     28  26   9     1.094441338592   109.25085619   171.15193977
 H     28  26   9     1.102153270384   112.10309619   291.35461053
 H     28  26   9     1.090720682862   109.47365769    52.61452476
 C     26   9   7     1.456409435205   114.49676889   311.29603702
 H     32  26   9     1.101825552270   113.32675185    72.40517282
 H     32  26   9     1.094444918162   108.93614111   192.25761688
 H     32  26   9     1.092099808935   109.58316916   310.97363056

---------------------------
INTERNAL COORDINATES (A.U.)
---------------------------
 H      0   0   0     0.000000000000     0.00000000     0.00000000
 C      1   0   0     2.051556944206     0.00000000     0.00000000
 C      2   1   0     2.626977324000   120.02559742     0.00000000
 C      2   1   3     2.629678715381   120.16893295   179.76942743
 C      3   2   1     2.647650413469   121.88939775   180.22113528
 H      3   2   1     2.053829933070   119.11686546     0.20722423
 C      4   2   1     2.625466083409   119.55171846   180.11579496
 H      4   2   1     2.051343079663   120.42394019     0.07873931
 C      7   4   2     2.637713016087   120.37194779   359.72028188
 H      7   4   2     2.052758943899   119.83034330   180.15085519
 B      5   3   2     3.005128127440   118.36364171   176.75603439
 H     11   5   3     3.387656744200    86.66306926   163.97005295
 H     12  11   5     1.503086156146    64.69110995   211.26486050
 C     11   5   3     2.945606035503   117.12448662   267.61745679
 C     14  11   5     2.623645850928   128.76666869     4.40387890
 C     15  14  11     2.670456445879   108.70085272   176.15030737
 H     15  14  11     2.044762329245   124.27123534   357.99914255
 C     16  15  14     2.602581584773   106.54728340     0.13489736
 H     16  15  14     2.041595411996   127.56529834   180.73331660
 H     18  16  15     2.042797718916   130.65601130   179.41231997
 N     18  16  15     2.577732358630   108.63519538   359.37439763
 C     21  18  16     2.732316935890   124.83661941   177.30914873
 H     22  21  18     2.063564831363   110.25682423   134.83755668
 H     22  21  18     2.069714299944   111.34055397   255.42411793
 H     22  21  18     2.062148630176   109.18026471    15.41592354
 N      9   7   4     2.727556534131   120.86866151   179.66094292
 H     11   5   3     2.280390314524   116.43021810    56.28338808
 C     26   9   7     2.761117815821   113.12416687    81.32157193
 H     28  26   9     2.068194399582   109.25085619   171.15193977
 H     28  26   9     2.082767838631   112.10309619   291.35461053
 H     28  26   9     2.061163379212   109.47365769    52.61452476
 C     26   9   7     2.752214971396   114.49676889   311.29603702
 H     32  26   9     2.082148541146   113.32675185    72.40517282
 H     32  26   9     2.068201163987   108.93614111   192.25761688
 H     32  26   9     2.063769549795   109.58316916   310.97363056

---------------------
BASIS SET INFORMATION
---------------------
There are 4 groups of distinct atoms

 Group   1 Type H   : 4s1p contracted to 2s1p pattern {31/1}
 Group   2 Type C   : 10s4p1d contracted to 3s2p1d pattern {631/31/1}
 Group   3 Type B   : 10s4p1d contracted to 3s2p1d pattern {631/31/1}
 Group   4 Type N   : 10s4p1d contracted to 3s2p1d pattern {631/31/1}

Atom   0H    basis set group =>   1
Atom   1C    basis set group =>   2
Atom   2C    basis set group =>   2
Atom   3C    basis set group =>   2
Atom   4C    basis set group =>   2
Atom   5H    basis set group =>   1
Atom   6C    basis set group =>   2
Atom   7H    basis set group =>   1
Atom   8C    basis set group =>   2
Atom   9H    basis set group =>   1
Atom  10B    basis set group =>   3
Atom  11H    basis set group =>   1
Atom  12H    basis set group =>   1
Atom  13C    basis set group =>   2
Atom  14C    basis set group =>   2
Atom  15C    basis set group =>   2
Atom  16H    basis set group =>   1
Atom  17C    basis set group =>   2
Atom  18H    basis set group =>   1
Atom  19H    basis set group =>   1
Atom  20N    basis set group =>   4
Atom  21C    basis set group =>   2
Atom  22H    basis set group =>   1
Atom  23H    basis set group =>   1
Atom  24H    basis set group =>   1
Atom  25N    basis set group =>   4
Atom  26H    basis set group =>   1
Atom  27C    basis set group =>   2
Atom  28H    basis set group =>   1
Atom  29H    basis set group =>   1
Atom  30H    basis set group =>   1
Atom  31C    basis set group =>   2
Atom  32H    basis set group =>   1
Atom  33H    basis set group =>   1
Atom  34H    basis set group =>   1
---------------------------------
AUXILIARY/J BASIS SET INFORMATION
---------------------------------
There are 4 groups of distinct atoms

 Group   1 Type H   : 5s2p1d contracted to 3s1p1d pattern {311/2/1}
 Group   2 Type C   : 12s5p4d2f1g contracted to 6s4p3d1f1g pattern {711111/2111/211/2/1}
 Group   3 Type B   : 12s5p4d2f1g contracted to 6s4p3d1f1g pattern {711111/2111/211/2/1}
 Group   4 Type N   : 12s5p4d2f1g contracted to 6s4p3d1f1g pattern {711111/2111/211/2/1}

Atom   0H    basis set group =>   1
Atom   1C    basis set group =>   2
Atom   2C    basis set group =>   2
Atom   3C    basis set group =>   2
Atom   4C    basis set group =>   2
Atom   5H    basis set group =>   1
Atom   6C    basis set group =>   2
Atom   7H    basis set group =>   1
Atom   8C    basis set group =>   2
Atom   9H    basis set group =>   1
Atom  10B    basis set group =>   3
Atom  11H    basis set group =>   1
Atom  12H    basis set group =>   1
Atom  13C    basis set group =>   2
Atom  14C    basis set group =>   2
Atom  15C    basis set group =>   2
Atom  16H    basis set group =>   1
Atom  17C    basis set group =>   2
Atom  18H    basis set group =>   1
Atom  19H    basis set group =>   1
Atom  20N    basis set group =>   4
Atom  21C    basis set group =>   2
Atom  22H    basis set group =>   1
Atom  23H    basis set group =>   1
Atom  24H    basis set group =>   1
Atom  25N    basis set group =>   4
Atom  26H    basis set group =>   1
Atom  27C    basis set group =>   2
Atom  28H    basis set group =>   1
Atom  29H    basis set group =>   1
Atom  30H    basis set group =>   1
Atom  31C    basis set group =>   2
Atom  32H    basis set group =>   1
Atom  33H    basis set group =>   1
Atom  34H    basis set group =>   1


           ************************************************************
           *        Program running with 24 parallel MPI-processes    *
           *              working on a common directory               *
           ************************************************************
------------------------------------------------------------------------------
                             ORCA STARTUP CALCULATIONS
                           -- RI-GTO INTEGRALS CHOSEN --
------------------------------------------------------------------------------
------------------------------------------------------------------------------
                   ___                                                        
                  /   \      - P O W E R E D   B Y -                         
                 /     \                                                     
                 |  |  |   _    _      __       _____    __    __             
                 |  |  |  | |  | |    /  \     |  _  \  |  |  /  |          
                  \  \/   | |  | |   /    \    | | | |  |  | /  /          
                 / \  \   | |__| |  /  /\  \   | |_| |  |  |/  /          
                |  |  |   |  __  | /  /__\  \  |    /   |      \           
                |  |  |   | |  | | |   __   |  |    \   |  |\   \          
                \     /   | |  | | |  |  |  |  | |\  \  |  | \   \       
                 \___/    |_|  |_| |__|  |__|  |_| \__\ |__|  \__/        
                                                                              
                      - O R C A' S   B I G   F R I E N D -                    
                                      &                                       
                       - I N T E G R A L  F E E D E R -                       
                                                                              
 v1 FN, 2020, v2 2021, v3 2022-2024                                           
------------------------------------------------------------------------------


----------------------
SHARK INTEGRAL PACKAGE
----------------------

Number of atoms                             ...     35
Number of basis functions                   ...    319
Number of shells                            ...    153
Maximum angular momentum                    ...      2
Integral batch strategy                     ... SHARK/LIBINT Hybrid
RI-J (if used) integral strategy            ... SPLIT-RIJ (Revised 2003 algorithm where possible)
Printlevel                                  ...      1
Contraction scheme used                     ... SEGMENTED contraction
Prescreening option                         ... SCHWARTZ
   Thresh                                   ... 2.500e-11
   Tcut                                     ... 2.500e-12
   Tpresel                                  ... 2.500e-12 
Coulomb Range Separation                    ... NOT USED
Exchange Range Separation                   ... Long Range
   Mu parameter                             ... 2.500e-01
   Scaling (regular/separated)              ... 1.957e-01 8.043e-01
Multipole approximations                    ... NOT USED
Finite Nucleus Model                        ... NOT USED
CABS basis                                  ... NOT available
Auxiliary Coulomb fitting basis             ... AVAILABLE
   # of basis functions in Aux-J            ...    993
   # of shells in Aux-J                     ...    335
   Maximum angular momentum in Aux-J        ...      4
Auxiliary J/K fitting basis                 ... NOT available
Auxiliary Correlation fitting basis         ... NOT available
Auxiliary 'external' fitting basis          ... NOT available

Checking pre-screening integrals            ... done (  0.0 sec) Dimension = 153
Check shell pair data                       ... done (  0.0 sec)
Shell pair information
Shell pair cut-off parameter TPreSel        ...   2.5e-12
Total number of shell pairs                 ...     11781
Shell pairs after pre-screening             ...      9300
Total number of primitive shell pairs       ...     56673
Primitive shell pairs kept                  ...     27180
          la=0 lb=0:   2988 shell pairs
          la=1 lb=0:   3477 shell pairs
          la=1 lb=1:   1053 shell pairs
          la=2 lb=0:   1054 shell pairs
          la=2 lb=1:    626 shell pairs
          la=2 lb=2:    102 shell pairs

Calculating one electron integrals          ... done (  0.0 sec)
Calculating RI/J V-Matrix + Cholesky decomp.... done (  0.5 sec)
Calculating Nuclear repulsion               ... done (  0.0 sec) ENN=   1069.287891185432 Eh

Diagonalization of the overlap matrix:
Smallest eigenvalue                        ... 4.264e-04
Time for diagonalization                   ...    0.026 sec
Threshold for overlap eigenvalues          ... 1.000e-07
Number of eigenvalues below threshold      ... 0
Time for construction of square roots      ...    0.016 sec
Total time needed                          ...    0.059 sec

-------------------
DFT GRID GENERATION
-------------------

General Integration Accuracy     IntAcc      ... 4.388
Radial Grid Type                 RadialGrid  ... OptM3 with GC (2021)
Angular Grid (max. ang.)         AngularGrid ... 4 (Lebedev-302)
Angular grid pruning method      GridPruning ... 4 (adaptive)
Weight generation scheme         WeightScheme... mBecke (2022)
Basis function cutoff            BFCut       ... 1.0000e-11
Integration weight cutoff        WCut        ... 1.0000e-14
Partially contracted basis set               ... off
Rotationally invariant grid construction     ... off
Angular grids for H and He will be reduced by one unit

Total number of grid points                  ...   155838
Total number of batches                      ...     2454
Average number of points per batch           ...       63
Average number of grid points per atom       ...     4453

--------------------
COSX GRID GENERATION
--------------------

GRIDX 1
-------
General Integration Accuracy     IntAcc      ... 3.816
Radial Grid Type                 RadialGrid  ... OptM3 with GC (2021)
Angular Grid (max. ang.)         AngularGrid ... 1 (Lebedev-50)
Angular grid pruning method      GridPruning ... 4 (adaptive)
Weight generation scheme         WeightScheme... mBecke (2022)
Basis function cutoff            BFCut       ... 1.0000e-11
Integration weight cutoff        WCut        ... 1.0000e-14
Partially contracted basis set               ... on
Rotationally invariant grid construction     ... off
Angular grids for H and He will be reduced by one unit

Total number of grid points                  ...    19852
Total number of batches                      ...      173
Average number of points per batch           ...      114
Average number of grid points per atom       ...      567
UseSFitting                                  ... on

GRIDX 2
-------
General Integration Accuracy     IntAcc      ... 4.020
Radial Grid Type                 RadialGrid  ... OptM3 with GC (2021)
Angular Grid (max. ang.)         AngularGrid ... 2 (Lebedev-110)
Angular grid pruning method      GridPruning ... 4 (adaptive)
Weight generation scheme         WeightScheme... mBecke (2022)
Basis function cutoff            BFCut       ... 1.0000e-11
Integration weight cutoff        WCut        ... 1.0000e-14
Partially contracted basis set               ... on
Rotationally invariant grid construction     ... off
Angular grids for H and He will be reduced by one unit

Total number of grid points                  ...    41985
Total number of batches                      ...      347
Average number of points per batch           ...      120
Average number of grid points per atom       ...     1200
UseSFitting                                  ... on

GRIDX 3
-------
General Integration Accuracy     IntAcc      ... 4.338
Radial Grid Type                 RadialGrid  ... OptM3 with GC (2021)
Angular Grid (max. ang.)         AngularGrid ... 3 (Lebedev-194)
Angular grid pruning method      GridPruning ... 4 (adaptive)
Weight generation scheme         WeightScheme... mBecke (2022)
Basis function cutoff            BFCut       ... 1.0000e-11
Integration weight cutoff        WCut        ... 1.0000e-14
Partially contracted basis set               ... on
Rotationally invariant grid construction     ... off
Angular grids for H and He will be reduced by one unit

Total number of grid points                  ...    91538
Total number of batches                      ...      734
Average number of points per batch           ...      124
Average number of grid points per atom       ...     2615
UseSFitting                                  ... on
Initializing property integral containers    ... done (  0.1 sec)

SHARK setup successfully completed in   5.8 seconds

Maximum memory used throughout the entire STARTUP-calculation: 41.6 MB


           ************************************************************
           *        Program running with 24 parallel MPI-processes    *
           *              working on a common directory               *
           ************************************************************
-------------------------------------------------------------------------------
                                 ORCA GUESS
                   Start orbitals & Density for SCF / CASSCF
-------------------------------------------------------------------------------

------------
SCF SETTINGS
------------
Hamiltonian:
 Density Functional     Method          .... DFT(GTOs)
 Exchange Functional    Exchange        .... WB97X-D3
 Correlation Functional Correlation     .... WB97X-D3
 Gradients option       PostSCFGGA      .... off
 Hybrid DFT is turned on
   Fraction HF Exchange ScalHFX         ....  0.195728
   Scaling of DF-GGA-X  ScalDFX         ....  0.000000
   Scaling of DF-GGA-C  ScalDFC         ....  1.000000
   Scaling of DF-LDA-C  ScalLDAC        ....  1.000000
   Perturbative correction              ....  0.000000
 Long-range corrected/Screened/Range-Separated Hybrid DFT is turned on
   Amount of maximum screened exact exchange              ....  0.804272
   Range separation parameter mu (erf(mu*r12)/r12)        ....  0.250000
 RI-approximation to the Coulomb term is turned on
   Number of AuxJ basis functions       .... 993
   RIJ-COSX (HFX calculated with COS-X)).... on


General Settings:
 Integral files         IntName         .... input
 Hartree-Fock type      HFTyp           .... RHF
 Total Charge           Charge          ....    0
 Multiplicity           Mult            ....    1
 Number of Electrons    NEL             ....  116
 Basis Dimension        Dim             ....  319
 Nuclear Repulsion      ENuc            ....   1069.2878911854 Eh

Convergence Acceleration:
 AO-DIIS                CNVDIIS         .... on
   Start iteration      DIISMaxIt       ....    12
   Startup error        DIISStart       ....  0.200000
   # of expansion vecs  DIISMaxEq       ....     5
   Bias factor          DIISBfac        ....   1.050
   Max. coefficient     DIISMaxC        ....  10.000
 MO-DIIS                CNVKDIIS        .... off
 Trust-Rad. Augm. Hess. CNVTRAH         .... auto
   Auto Start mean grad. ratio tolernc. ....  1.125000
   Auto Start start iteration           ....    50
   Auto Start num. interpolation iter.  ....    10
   Max. Number of Micro iterations      ....    24
   Max. Number of Macro iterations      .... Maxiter - #DIIS iter
   Number of Davidson start vectors     ....     2
   Converg. threshold    (grad. norm)   ....   1.000e-05
   Grad. Scal. Fac. for Micro threshold ....   0.100
   Minimum threshold for Micro iter.    ....   1.000e-02
   NR start threshold (gradient norm)   ....   1.000e-04
   Initial trust radius                 ....   0.400
   Minimum AH scaling param. (alpha)    ....   1.000
   Maximum AH scaling param. (alpha)    .... 1000.000
   Quad. conv. algorithm                .... NR
   White noise on init. David. guess    .... on
   Maximum white noise                  ....   0.010
   Pseudo random numbers                .... off
   Inactive MOs                         .... canonical
   Orbital update algorithm             .... Taylor
   Preconditioner                       .... Diag
   Full preconditioner red. dimension   ....   250
 SOSCF                  CNVSOSCF        .... on
   Start iteration      SOSCFMaxIt      ....   150
   Startup grad/error   SOSCFStart      ....  0.003300
   Hessian update       SOSCFHessUp     .... L-BFGS
 Level Shifting         CNVShift        .... on
   Level shift para.    LevelShift      ....    0.2500
   Turn off err/grad.   ShiftErr        ....    0.0010
 Zerner damping         CNVZerner       .... off
 Static damping         CNVDamp         .... on
   Fraction old density DampFac         ....    0.7000
   Max. Damping (<1)    DampMax         ....    0.9800
   Min. Damping (>=0)   DampMin         ....    0.0000
   Turn off err/grad.   DampErr         ....    0.1000

SCF Procedure:
 Maximum # iterations   MaxIter         ....   125
 SCF integral mode      SCFMode         .... Direct
   Integral package                     .... SHARK and LIBINT hybrid scheme
 Reset frequency        DirectResetFreq ....    20
 Integral Threshold     Thresh          ....  2.500e-11 Eh
 Primitive CutOff       TCut            ....  2.500e-12 Eh

Convergence Tolerance:
 Convergence Check Mode ConvCheckMode   .... Total+1el-Energy
 Convergence forced     ConvForced      .... 0
 Energy Change          TolE            ....  1.000e-08 Eh
 1-El. energy change                    ....  1.000e-05 Eh
 Orbital Gradient       TolG            ....  1.000e-05
 Orbital Rotation angle TolX            ....  1.000e-05
 DIIS Error             TolErr          ....  5.000e-07

------------------------------
INITIAL GUESS: MODEL POTENTIAL
------------------------------
Loading Hartree-Fock densities                     ... done
Calculating cut-offs                               ... done
Initializing the effective Hamiltonian             ... done
Setting up the integral package (SHARK)            ... done
Starting the Coulomb interaction                   ... done (   0.2 sec)
Making the grid                                    ... done (   0.5 sec)
Mapping shells                                     ... done
Starting the XC term evaluation                    ... done (   0.2 sec)
  promolecular density results
     # of electrons  =    115.994058897
     EX              =    -89.012557831
     EC              =     -3.838284062
     EX+EC           =    -92.850841894
Transforming the Hamiltonian                       ... done (   0.2 sec)
Diagonalizing the Hamiltonian                      ... done (   0.1 sec)
Back transforming the eigenvectors                 ... done (   0.1 sec)
Now organizing SCF variables                       ... done
                      ------------------
                      INITIAL GUESS DONE (   1.9 sec)
                      ------------------
             **** ENERGY FILE WAS UPDATED (input.en.tmp) ****
Finished Guess after   3.3 sec
Maximum memory used throughout the entire GUESS-calculation: 24.8 MB


           ************************************************************
           *        Program running with 24 parallel MPI-processes    *
           *              working on a common directory               *
           ************************************************************

-------------------------------------------------------------------------------------------
                                      ORCA LEAN-SCF
                              memory conserving SCF solver
-------------------------------------------------------------------------------------------

----------------------------------------D-I-I-S--------------------------------------------
Iteration    Energy (Eh)           Delta-E    RMSDP     MaxDP     DIISErr   Damp  Time(sec)
-------------------------------------------------------------------------------------------
               ***  Starting incremental Fock matrix formation  ***
    1    -640.5990374408443131     0.00e+00  1.59e-03  3.98e-02  1.27e-01  0.700   3.8
    2    -640.7346956374419733    -1.36e-01  1.25e-03  3.06e-02  7.93e-02  0.700   2.2
                               ***Turning on AO-DIIS***
    3    -640.8097998050918704    -7.51e-02  6.56e-04  1.78e-02  4.33e-02  0.700   2.2
    4    -640.8550922766703479    -4.53e-02  1.41e-03  3.57e-02  2.77e-02  0.000   1.7
    5    -640.9513254011960726    -9.62e-02  1.38e-04  4.58e-03  3.32e-03  0.000   1.9
                              *** Initializing SOSCF ***
---------------------------------------S-O-S-C-F--------------------------------------
Iteration    Energy (Eh)           Delta-E    RMSDP     MaxDP     MaxGrad    Time(sec)
--------------------------------------------------------------------------------------
    6    -640.9515530166463577    -2.28e-04  6.93e-05  1.86e-03  1.22e-03     1.7
               *** Restarting incremental Fock matrix formation ***
    7    -640.9516636418572944    -1.11e-04  4.84e-05  1.12e-03  7.82e-04     3.4
    8    -640.9516820866531361    -1.84e-05  4.82e-05  1.10e-03  2.72e-04     2.6
    9    -640.9516867733375420    -4.69e-06  1.57e-05  3.58e-04  1.24e-04     2.3
   10    -640.9516880362218672    -1.26e-06  3.09e-06  9.09e-05  2.07e-05     2.0
   11    -640.9516880704368305    -3.42e-08  1.17e-06  4.48e-05  2.07e-05     2.1
   12    -640.9516880979049347    -2.75e-08  3.90e-07  1.06e-05  3.69e-06     2.7
   13    -640.9516880945418507     3.36e-09  1.82e-07  5.65e-06  2.77e-06     1.5
                 **** Energy Check signals convergence ****

               *****************************************************
               *                     SUCCESS                       *
               *           SCF CONVERGED AFTER  13 CYCLES          *
               *****************************************************

Recomputing exchange energy using gridx3       ... done (    5.174 sec)
Old exchange energy                            :    -30.257474781 Eh
New exchange energy                            :    -30.257452999 Eh
Exchange energy change after final integration :      0.000021782 Eh
Total energy after final integration           :   -640.951666313 Eh
             **** ENERGY FILE WAS UPDATED (input.en.tmp) ****

----------------
TOTAL SCF ENERGY
----------------

Total Energy       :       -640.95166631291102 Eh          -17441.18153 eV

Components:
Nuclear Repulsion  :       1069.28789118543159 Eh           29096.80277 eV
Electronic Energy  :      -1710.23957927997344 Eh          -46537.98490 eV
One Electron Energy:      -2988.35756007664213 Eh          -81317.34330 eV
Two Electron Energy:       1278.11798079666869 Eh           34779.35841 eV

Virial components:
Potential Energy   :      -1277.44816231078994 Eh          -34761.13172 eV
Kinetic Energy     :        636.49649599787881 Eh           17319.95019 eV
Virial Ratio       :          2.00699952056774

DFT components:
N(Alpha)           :       58.000039538673 electrons
N(Beta)            :       58.000039538673 electrons
N(Total)           :      116.000079077346 electrons
E(XC)              :      -65.228682561050 Eh       

---------------
SCF CONVERGENCE
---------------

  Last Energy change         ...   -3.3631e-09  Tolerance :   1.0000e-08
  Last MAX-Density change    ...    5.6461e-06  Tolerance :   1.0000e-07
  Last RMS-Density change    ...    1.8193e-07  Tolerance :   5.0000e-09
  Last DIIS Error            ...    1.2231e-03  Tolerance :   5.0000e-07
  Last Orbital Gradient      ...    2.7706e-06  Tolerance :   1.0000e-05
  Last Orbital Rotation      ...    6.8252e-06  Tolerance :   1.0000e-05


----------------
ORBITAL ENERGIES
----------------

  NO   OCC          E(Eh)            E(eV) 
   0   2.0000     -14.470668      -393.7669 
   1   2.0000     -14.446052      -393.0971 
   2   2.0000     -10.318783      -280.7884 
   3   2.0000     -10.312720      -280.6234 
   4   2.0000     -10.310424      -280.5609 
   5   2.0000     -10.302979      -280.3583 
   6   2.0000     -10.291787      -280.0538 
   7   2.0000     -10.283385      -279.8251 
   8   2.0000     -10.282908      -279.8122 
   9   2.0000     -10.280200      -279.7385 
  10   2.0000     -10.279060      -279.7074 
  11   2.0000     -10.266363      -279.3619 
  12   2.0000     -10.265947      -279.3506 
  13   2.0000     -10.252804      -278.9930 
  14   2.0000     -10.252405      -278.9821 
  15   2.0000      -6.829676      -185.8449 
  16   2.0000      -1.085957       -29.5504 
  17   2.0000      -1.055289       -28.7159 
  18   2.0000      -0.955915       -26.0118 
  19   2.0000      -0.903846       -24.5949 
  20   2.0000      -0.856416       -23.3043 
  21   2.0000      -0.850291       -23.1376 
  22   2.0000      -0.824697       -22.4412 
  23   2.0000      -0.817619       -22.2486 
  24   2.0000      -0.789616       -21.4866 
  25   2.0000      -0.755407       -20.5557 
  26   2.0000      -0.716268       -19.4906 
  27   2.0000      -0.680434       -18.5156 
  28   2.0000      -0.665336       -18.1047 
  29   2.0000      -0.654688       -17.8150 
  30   2.0000      -0.627489       -17.0749 
  31   2.0000      -0.610197       -16.6043 
  32   2.0000      -0.600555       -16.3419 
  33   2.0000      -0.574717       -15.6388 
  34   2.0000      -0.561426       -15.2772 
  35   2.0000      -0.556268       -15.1368 
  36   2.0000      -0.554659       -15.0930 
  37   2.0000      -0.529285       -14.4026 
  38   2.0000      -0.525382       -14.2964 
  39   2.0000      -0.520564       -14.1653 
  40   2.0000      -0.500559       -13.6209 
  41   2.0000      -0.496465       -13.5095 
  42   2.0000      -0.491277       -13.3683 
  43   2.0000      -0.479466       -13.0469 
  44   2.0000      -0.475079       -12.9276 
  45   2.0000      -0.467979       -12.7343 
  46   2.0000      -0.463472       -12.6117 
  47   2.0000      -0.456714       -12.4278 
  48   2.0000      -0.453570       -12.3423 
  49   2.0000      -0.447754       -12.1840 
  50   2.0000      -0.426423       -11.6036 
  51   2.0000      -0.410599       -11.1730 
  52   2.0000      -0.396218       -10.7816 
  53   2.0000      -0.333443        -9.0734 
  54   2.0000      -0.321033        -8.7358 
  55   2.0000      -0.310284        -8.4433 
  56   2.0000      -0.306862        -8.3501 
  57   2.0000      -0.276506        -7.5241 
  58   0.0000       0.075608         2.0574 
  59   0.0000       0.082875         2.2551 
  60   0.0000       0.095236         2.5915 
  61   0.0000       0.157470         4.2850 
  62   0.0000       0.177079         4.8186 
  63   0.0000       0.184241         5.0135 
  64   0.0000       0.192620         5.2415 
  65   0.0000       0.200329         5.4512 
  66   0.0000       0.211957         5.7676 
  67   0.0000       0.221209         6.0194 
  68   0.0000       0.233837         6.3630 
*Only the first 10 virtual orbitals were printed.

                    ********************************
                    * MULLIKEN POPULATION ANALYSIS *
                    ********************************

-----------------------
MULLIKEN ATOMIC CHARGES
-----------------------
   0 H :    0.117268
   1 C :   -0.105465
   2 C :   -0.175213
   3 C :   -0.140616
   4 C :    0.029338
   5 H :    0.118522
   6 C :   -0.106966
   7 H :    0.118517
   8 C :    0.150233
   9 H :    0.108041
  10 B :   -0.067104
  11 H :    0.127907
  12 H :    0.004279
  13 C :    0.254315
  14 C :   -0.198369
  15 C :   -0.193198
  16 H :    0.112403
  17 C :    0.048383
  18 H :    0.109389
  19 H :    0.122603
  20 N :   -0.445010
  21 C :   -0.208618
  22 H :    0.154415
  23 H :    0.137261
  24 H :    0.134652
  25 N :   -0.505941
  26 H :   -0.054554
  27 C :   -0.194663
  28 H :    0.121872
  29 H :    0.103303
  30 H :    0.149064
  31 C :   -0.198591
  32 H :    0.105093
  33 H :    0.126622
  34 H :    0.140829
Sum of atomic charges:    0.0000000

--------------------------------
MULLIKEN REDUCED ORBITAL CHARGES
--------------------------------
  0 H s       :     0.870520  s :     0.870520
      pz      :     0.005270  p :     0.012212
      px      :     0.004963
      py      :     0.001979

  1 C s       :     3.156869  s :     3.156869
      pz      :     0.983028  p :     2.913445
      px      :     0.990487
      py      :     0.939930
      dz2     :     0.005326  d :     0.035151
      dxz     :     0.006108
      dyz     :     0.008351
      dx2y2   :     0.007758
      dxy     :     0.007608

  2 C s       :     3.182819  s :     3.182819
      pz      :     0.996803  p :     2.956271
      px      :     0.973157
      py      :     0.986311
      dz2     :     0.005623  d :     0.036123
      dxz     :     0.004941
      dyz     :     0.010306
      dx2y2   :     0.007645
      dxy     :     0.007608

  3 C s       :     3.169030  s :     3.169030
      pz      :     0.958407  p :     2.936238
      px      :     0.978672
      py      :     0.999159
      dz2     :     0.008355  d :     0.035348
      dxz     :     0.005521
      dyz     :     0.007084
      dx2y2   :     0.006780
      dxy     :     0.007608

  4 C s       :     3.188288  s :     3.188288
      pz      :     0.885255  p :     2.750385
      px      :     0.925481
      py      :     0.939649
      dz2     :     0.006512  d :     0.031989
      dxz     :     0.005411
      dyz     :     0.008539
      dx2y2   :     0.005821
      dxy     :     0.005706

  5 H s       :     0.869322  s :     0.869322
      pz      :     0.004362  p :     0.012156
      px      :     0.002519
      py      :     0.005275

  6 C s       :     3.148057  s :     3.148057
      pz      :     0.987938  p :     2.924740
      px      :     0.970864
      py      :     0.965938
      dz2     :     0.005696  d :     0.034169
      dxz     :     0.004680
      dyz     :     0.009219
      dx2y2   :     0.007475
      dxy     :     0.007098

  7 H s       :     0.869214  s :     0.869214
      pz      :     0.002235  p :     0.012269
      px      :     0.003434
      py      :     0.006601

  8 C s       :     3.093913  s :     3.093913
      pz      :     0.866487  p :     2.699532
      px      :     0.897085
      py      :     0.935960
      dz2     :     0.011014  d :     0.056322
      dxz     :     0.010392
      dyz     :     0.012078
      dx2y2   :     0.010568
      dxy     :     0.012269

  9 H s       :     0.879504  s :     0.879504
      pz      :     0.004517  p :     0.012455
      px      :     0.002687
      py      :     0.005251

 10 B s       :     2.969395  s :     2.969395
      pz      :     0.769304  p :     2.043314
      px      :     0.462416
      py      :     0.811594
      dz2     :     0.009406  d :     0.054395
      dxz     :     0.010885
      dyz     :     0.011802
      dx2y2   :     0.011151
      dxy     :     0.011151

 11 H s       :     0.856619  s :     0.856619
      pz      :     0.004642  p :     0.015474
      px      :     0.001100
      py      :     0.009732

 12 H s       :     0.986098  s :     0.986098
      pz      :     0.002343  p :     0.009623
      px      :     0.002669
      py      :     0.004610

 13 C s       :     3.100446  s :     3.100446
      pz      :     0.981531  p :     2.598290
      px      :     0.936993
      py      :     0.679766
      dz2     :     0.006298  d :     0.046949
      dxz     :     0.007044
      dyz     :     0.009348
      dx2y2   :     0.015085
      dxy     :     0.009174

 14 C s       :     3.172932  s :     3.172932
      pz      :     1.004819  p :     2.989199
      px      :     0.990035
      py      :     0.994345
      dz2     :     0.007637  d :     0.036238
      dxz     :     0.005002
      dyz     :     0.005624
      dx2y2   :     0.008529
      dxy     :     0.009445

 15 C s       :     3.162518  s :     3.162518
      pz      :     1.050646  p :     2.995762
      px      :     1.007780
      py      :     0.937337
      dz2     :     0.004080  d :     0.034918
      dxz     :     0.006395
      dyz     :     0.007550
      dx2y2   :     0.007843
      dxy     :     0.009051

 16 H s       :     0.874661  s :     0.874661
      pz      :     0.002573  p :     0.012936
      px      :     0.003818
      py      :     0.006545

 17 C s       :     3.068928  s :     3.068928
      pz      :     0.945885  p :     2.831333
      px      :     0.922330
      py      :     0.963119
      dz2     :     0.010280  d :     0.051356
      dxz     :     0.009552
      dyz     :     0.008108
      dx2y2   :     0.012502
      dxy     :     0.010915

 18 H s       :     0.877762  s :     0.877762
      pz      :     0.004808  p :     0.012849
      px      :     0.005886
      py      :     0.002155

 19 H s       :     0.864715  s :     0.864715
      pz      :     0.003181  p :     0.012682
      px      :     0.002085
      py      :     0.007416

 20 N s       :     3.558886  s :     3.558886
      pz      :     1.382509  p :     3.838455
      px      :     1.244311
      py      :     1.211635
      dz2     :     0.009304  d :     0.047668
      dxz     :     0.006871
      dyz     :     0.008293
      dx2y2   :     0.010346
      dxy     :     0.012855

 21 C s       :     3.201023  s :     3.201023
      pz      :     1.060597  p :     2.962838
      px      :     0.881855
      py      :     1.020387
      dz2     :     0.011481  d :     0.044757
      dxz     :     0.009029
      dyz     :     0.003552
      dx2y2   :     0.012584
      dxy     :     0.008110

 22 H s       :     0.834302  s :     0.834302
      pz      :     0.007313  p :     0.011283
      px      :     0.001671
      py      :     0.002300

 23 H s       :     0.851697  s :     0.851697
      pz      :     0.003094  p :     0.011042
      px      :     0.005236
      py      :     0.002713

 24 H s       :     0.854122  s :     0.854122
      pz      :     0.002403  p :     0.011225
      px      :     0.001691
      py      :     0.007131

 25 N s       :     3.603569  s :     3.603569
      pz      :     1.141270  p :     3.861917
      px      :     1.220054
      py      :     1.500593
      dz2     :     0.009392  d :     0.040456
      dxz     :     0.011791
      dyz     :     0.005687
      dx2y2   :     0.006024
      dxy     :     0.007562

 26 H s       :     1.048510  s :     1.048510
      pz      :     0.003537  p :     0.006044
      px      :     0.001170
      py      :     0.001338

 27 C s       :     3.206405  s :     3.206405
      pz      :     0.830304  p :     2.943132
      px      :     1.042327
      py      :     1.070501
      dz2     :     0.009950  d :     0.045127
      dxz     :     0.012825
      dyz     :     0.009507
      dx2y2   :     0.002763
      dxy     :     0.010082

 28 H s       :     0.867118  s :     0.867118
      pz      :     0.003777  p :     0.011011
      px      :     0.004476
      py      :     0.002757

 29 H s       :     0.885790  s :     0.885790
      pz      :     0.002364  p :     0.010907
      px      :     0.003240
      py      :     0.005303

 30 H s       :     0.839172  s :     0.839172
      pz      :     0.001550  p :     0.011764
      px      :     0.004566
      py      :     0.005648

 31 C s       :     3.203380  s :     3.203380
      pz      :     1.090832  p :     2.949383
      px      :     0.926962
      py      :     0.931589
      dz2     :     0.007459  d :     0.045828
      dxz     :     0.009058
      dyz     :     0.005587
      dx2y2   :     0.012184
      dxy     :     0.011540

 32 H s       :     0.883880  s :     0.883880
      pz      :     0.002852  p :     0.011027
      px      :     0.002250
      py      :     0.005925

 33 H s       :     0.862417  s :     0.862417
      pz      :     0.003969  p :     0.010961
      px      :     0.004665
      py      :     0.002328

 34 H s       :     0.848159  s :     0.848159
      pz      :     0.006446  p :     0.011012
      px      :     0.002528
      py      :     0.002037



                     *******************************
                     * LOEWDIN POPULATION ANALYSIS *
                     *******************************

----------------------
LOEWDIN ATOMIC CHARGES
----------------------
   0 H :    0.078372
   1 C :   -0.082237
   2 C :   -0.061915
   3 C :   -0.081314
   4 C :   -0.037584
   5 H :    0.080614
   6 C :   -0.092211
   7 H :    0.078024
   8 C :    0.014954
   9 H :    0.075873
  10 B :   -0.199014
  11 H :    0.140820
  12 H :    0.061932
  13 C :   -0.049711
  14 C :   -0.120278
  15 C :   -0.148587
  16 H :    0.074992
  17 C :   -0.069929
  18 H :    0.074104
  19 H :    0.072690
  20 N :    0.025233
  21 C :   -0.114575
  22 H :    0.087682
  23 H :    0.076011
  24 H :    0.083051
  25 N :   -0.144784
  26 H :   -0.000747
  27 C :   -0.123459
  28 H :    0.072404
  29 H :    0.056337
  30 H :    0.087475
  31 C :   -0.126152
  32 H :    0.055946
  33 H :    0.074452
  34 H :    0.081530

-------------------------------
LOEWDIN REDUCED ORBITAL CHARGES
-------------------------------
  0 H s       :     0.881485  s :     0.881485
      pz      :     0.017460  p :     0.040143
      px      :     0.016263
      py      :     0.006421

  1 C s       :     2.893160  s :     2.893160
      pz      :     1.026806  p :     3.104025
      px      :     1.016440
      py      :     1.060779
      dz2     :     0.012403  d :     0.085053
      dxz     :     0.011920
      dyz     :     0.021780
      dx2y2   :     0.019907
      dxy     :     0.019043

  2 C s       :     2.888870  s :     2.888870
      pz      :     1.024492  p :     3.087242
      px      :     1.013864
      py      :     1.048886
      dz2     :     0.012992  d :     0.085803
      dxz     :     0.012053
      dyz     :     0.023330
      dx2y2   :     0.018201
      dxy     :     0.019227

  3 C s       :     2.892004  s :     2.892004
      pz      :     1.031854  p :     3.103875
      px      :     1.017785
      py      :     1.054236
      dz2     :     0.019085  d :     0.085436
      dxz     :     0.014549
      dyz     :     0.018685
      dx2y2   :     0.015851
      dxy     :     0.017266

  4 C s       :     2.883995  s :     2.883995
      pz      :     0.994036  p :     3.073526
      px      :     0.999778
      py      :     1.079712
      dz2     :     0.015562  d :     0.080063
      dxz     :     0.014453
      dyz     :     0.021896
      dx2y2   :     0.014071
      dxy     :     0.014080

  5 H s       :     0.879343  s :     0.879343
      pz      :     0.014358  p :     0.040043
      px      :     0.007871
      py      :     0.017814

  6 C s       :     2.892090  s :     2.892090
      pz      :     1.036514  p :     3.116010
      px      :     1.024754
      py      :     1.054743
      dz2     :     0.013448  d :     0.084111
      dxz     :     0.012362
      dyz     :     0.021680
      dx2y2   :     0.018122
      dxy     :     0.018499

  7 H s       :     0.881846  s :     0.881846
      pz      :     0.006892  p :     0.040130
      px      :     0.010846
      py      :     0.022391

  8 C s       :     2.853834  s :     2.853834
      pz      :     0.961366  p :     2.993844
      px      :     0.963930
      py      :     1.068547
      dz2     :     0.025202  d :     0.137368
      dxz     :     0.024577
      dyz     :     0.030763
      dx2y2   :     0.026770
      dxy     :     0.030056

  9 H s       :     0.883422  s :     0.883422
      pz      :     0.014611  p :     0.040705
      px      :     0.008205
      py      :     0.017889

 10 B s       :     2.779464  s :     2.779464
      pz      :     0.824700  p :     2.292948
      px      :     0.577717
      py      :     0.890532
      dz2     :     0.022041  d :     0.126602
      dxz     :     0.022894
      dyz     :     0.028610
      dx2y2   :     0.025803
      dxy     :     0.027254

 11 H s       :     0.814208  s :     0.814208
      pz      :     0.011760  p :     0.044972
      px      :     0.003938
      py      :     0.029274

 12 H s       :     0.915110  s :     0.915110
      pz      :     0.006461  p :     0.022958
      px      :     0.004747
      py      :     0.011750

 13 C s       :     2.870797  s :     2.870797
      pz      :     1.064454  p :     3.065392
      px      :     1.060012
      py      :     0.940927
      dz2     :     0.013725  d :     0.113523
      dxz     :     0.016612
      dyz     :     0.021375
      dx2y2   :     0.038096
      dxy     :     0.023714

 14 C s       :     2.893935  s :     2.893935
      pz      :     1.037026  p :     3.141520
      px      :     1.055678
      py      :     1.048816
      dz2     :     0.015805  d :     0.084822
      dxz     :     0.012723
      dyz     :     0.013753
      dx2y2   :     0.021258
      dxy     :     0.021284

 15 C s       :     2.891678  s :     2.891678
      pz      :     1.064899  p :     3.172605
      px      :     1.057315
      py      :     1.050391
      dz2     :     0.008457  d :     0.084304
      dxz     :     0.012477
      dyz     :     0.018878
      dx2y2   :     0.019993
      dxy     :     0.024499

 16 H s       :     0.883021  s :     0.883021
      pz      :     0.007808  p :     0.041987
      px      :     0.012507
      py      :     0.021671

 17 C s       :     2.883495  s :     2.883495
      pz      :     1.011509  p :     3.067705
      px      :     1.009376
      py      :     1.046820
      dz2     :     0.022311  d :     0.118728
      dxz     :     0.023337
      dyz     :     0.017941
      dx2y2   :     0.027500
      dxy     :     0.027640

 18 H s       :     0.884231  s :     0.884231
      pz      :     0.015391  p :     0.041665
      px      :     0.019346
      py      :     0.006927

 19 H s       :     0.885115  s :     0.885115
      pz      :     0.010015  p :     0.042195
      px      :     0.006735
      py      :     0.025445

 20 N s       :     3.054521  s :     3.054521
      pz      :     1.352138  p :     3.805318
      px      :     1.237046
      py      :     1.216134
      dz2     :     0.020204  d :     0.114928
      dxz     :     0.016064
      dyz     :     0.020142
      dx2y2   :     0.026664
      dxy     :     0.031852

 21 C s       :     2.894783  s :     2.894783
      pz      :     1.090203  p :     3.127457
      px      :     0.972911
      py      :     1.064343
      dz2     :     0.023155  d :     0.092335
      dxz     :     0.018752
      dyz     :     0.006520
      dx2y2   :     0.026555
      dxy     :     0.017352

 22 H s       :     0.872425  s :     0.872425
      pz      :     0.027250  p :     0.039893
      px      :     0.005545
      py      :     0.007098

 23 H s       :     0.885058  s :     0.885058
      pz      :     0.010501  p :     0.038931
      px      :     0.019579
      py      :     0.008851

 24 H s       :     0.877999  s :     0.877999
      pz      :     0.007461  p :     0.038950
      px      :     0.005463
      py      :     0.026026

 25 N s       :     3.129952  s :     3.129952
      pz      :     1.176060  p :     3.920420
      px      :     1.249877
      py      :     1.494484
      dz2     :     0.023548  d :     0.094412
      dxz     :     0.028071
      dyz     :     0.012415
      dx2y2   :     0.012551
      dxy     :     0.017826

 26 H s       :     0.984322  s :     0.984322
      pz      :     0.008881  p :     0.016426
      px      :     0.003018
      py      :     0.004526

 27 C s       :     2.906478  s :     2.906478
      pz      :     0.940514  p :     3.122872
      px      :     1.081935
      py      :     1.100424
      dz2     :     0.021628  d :     0.094108
      dxz     :     0.027581
      dyz     :     0.020495
      dx2y2   :     0.004726
      dxy     :     0.019677

 28 H s       :     0.889236  s :     0.889236
      pz      :     0.013463  p :     0.038360
      px      :     0.016061
      py      :     0.008835

 29 H s       :     0.905172  s :     0.905172
      pz      :     0.008551  p :     0.038491
      px      :     0.011115
      py      :     0.018825

 30 H s       :     0.871054  s :     0.871054
      pz      :     0.005236  p :     0.041471
      px      :     0.016278
      py      :     0.019956

 31 C s       :     2.904421  s :     2.904421
      pz      :     1.107476  p :     3.126255
      px      :     1.001510
      py      :     1.017270
      dz2     :     0.015146  d :     0.095476
      dxz     :     0.017492
      dyz     :     0.011416
      dx2y2   :     0.026577
      dxy     :     0.024845

 32 H s       :     0.905294  s :     0.905294
      pz      :     0.009400  p :     0.038760
      px      :     0.007439
      py      :     0.021920

 33 H s       :     0.887199  s :     0.887199
      pz      :     0.013619  p :     0.038350
      px      :     0.016995
      py      :     0.007736

 34 H s       :     0.879630  s :     0.879630
      pz      :     0.023571  p :     0.038840
      px      :     0.008895
      py      :     0.006373



                      *****************************
                      * MAYER POPULATION ANALYSIS *
                      *****************************

  NA   - Mulliken gross atomic population
  ZA   - Total nuclear charge
  QA   - Mulliken gross atomic charge
  VA   - Mayer's total valence
  BVA  - Mayer's bonded valence
  FA   - Mayer's free valence

  ATOM       NA         ZA         QA         VA         BVA        FA
  0 H      0.8827     1.0000     0.1173     0.9576     0.9576    -0.0000
  1 C      6.1055     6.0000    -0.1055     3.9271     3.9271    -0.0000
  2 C      6.1752     6.0000    -0.1752     3.9865     3.9865    -0.0000
  3 C      6.1406     6.0000    -0.1406     3.9700     3.9700     0.0000
  4 C      5.9707     6.0000     0.0293     3.8736     3.8736     0.0000
  5 H      0.8815     1.0000     0.1185     0.9576     0.9576     0.0000
  6 C      6.1070     6.0000    -0.1070     3.8982     3.8982    -0.0000
  7 H      0.8815     1.0000     0.1185     0.9576     0.9576     0.0000
  8 C      5.8498     6.0000     0.1502     3.9185     3.9185     0.0000
  9 H      0.8920     1.0000     0.1080     0.9621     0.9621    -0.0000
 10 B      5.0671     5.0000    -0.0671     3.5322     3.5322    -0.0000
 11 H      0.8721     1.0000     0.1279     0.9902     0.9902    -0.0000
 12 H      0.9957     1.0000     0.0043     0.9646     0.9646    -0.0000
 13 C      5.7457     6.0000     0.2543     3.7134     3.7134     0.0000
 14 C      6.1984     6.0000    -0.1984     3.9584     3.9584     0.0000
 15 C      6.1932     6.0000    -0.1932     3.9782     3.9782     0.0000
 16 H      0.8876     1.0000     0.1124     0.9668     0.9668     0.0000
 17 C      5.9516     6.0000     0.0484     3.8126     3.8126     0.0000
 18 H      0.8906     1.0000     0.1094     0.9639     0.9639    -0.0000
 19 H      0.8774     1.0000     0.1226     0.9594     0.9594     0.0000
 20 N      7.4450     7.0000    -0.4450     3.3217     3.3217     0.0000
 21 C      6.2086     6.0000    -0.2086     3.8269     3.8269    -0.0000
 22 H      0.8456     1.0000     0.1544     0.9483     0.9483     0.0000
 23 H      0.8627     1.0000     0.1373     0.9446     0.9446     0.0000
 24 H      0.8653     1.0000     0.1347     0.9568     0.9568    -0.0000
 25 N      7.5059     7.0000    -0.5059     2.9295     2.9295    -0.0000
 26 H      1.0546     1.0000    -0.0546     0.9646     0.9646    -0.0000
 27 C      6.1947     6.0000    -0.1947     3.8121     3.8121    -0.0000
 28 H      0.8781     1.0000     0.1219     0.9556     0.9556    -0.0000
 29 H      0.8967     1.0000     0.1033     0.9555     0.9555     0.0000
 30 H      0.8509     1.0000     0.1491     0.9726     0.9726    -0.0000
 31 C      6.1986     6.0000    -0.1986     3.8421     3.8421     0.0000
 32 H      0.8949     1.0000     0.1051     0.9538     0.9538     0.0000
 33 H      0.8734     1.0000     0.1266     0.9546     0.9546     0.0000
 34 H      0.8592     1.0000     0.1408     0.9556     0.9556     0.0000

  Mayer bond orders larger than 0.100000
B(  0-H ,  1-C ) :   0.9492 B(  1-C ,  2-C ) :   1.4470 B(  1-C ,  3-C ) :   1.4425 
B(  2-C ,  4-C ) :   1.4092 B(  2-C ,  5-H ) :   0.9434 B(  3-C ,  6-C ) :   1.4472 
B(  3-C ,  7-H ) :   0.9470 B(  4-C ,  8-C ) :   1.4265 B(  4-C , 10-B ) :   0.9622 
B(  6-C ,  8-C ) :   1.4069 B(  6-C ,  9-H ) :   0.9432 B(  8-C , 25-N ) :   0.9001 
B( 10-B , 11-H ) :   0.1605 B( 10-B , 12-H ) :   0.2345 B( 10-B , 13-C ) :   1.0674 
B( 10-B , 26-H ) :   0.9324 B( 11-H , 12-H ) :   0.7014 B( 11-H , 25-N ) :   0.1185 
B( 13-C , 14-C ) :   1.4831 B( 13-C , 20-N ) :   1.0678 B( 14-C , 15-C ) :   1.3747 
B( 14-C , 16-H ) :   0.9473 B( 15-C , 17-C ) :   1.5487 B( 15-C , 18-H ) :   0.9535 
B( 17-C , 19-H ) :   0.9461 B( 17-C , 20-N ) :   1.1787 B( 20-N , 21-C ) :   0.9370 
B( 21-C , 22-H ) :   0.9505 B( 21-C , 23-H ) :   0.9533 B( 21-C , 24-H ) :   0.9630 
B( 25-N , 27-C ) :   0.9408 B( 25-N , 31-C ) :   0.9566 B( 27-C , 28-H ) :   0.9629 
B( 27-C , 29-H ) :   0.9521 B( 27-C , 30-H ) :   0.9455 B( 31-C , 32-H ) :   0.9491 
B( 31-C , 33-H ) :   0.9624 B( 31-C , 34-H ) :   0.9632 

-------
TIMINGS
-------

Total SCF time: 0 days 0 hours 0 min 36 sec 

Total time                  ....      36.275 sec
Sum of individual times     ....      36.089 sec  ( 99.5%)

SCF preparation             ....       0.789 sec  (  2.2%)
Fock matrix formation       ....      33.640 sec  ( 92.7%)
  Startup                   ....       0.136 sec  (  0.4% of F)
  Split-RI-J                ....       2.495 sec  (  7.4% of F)
  Chain of spheres X        ....      24.408 sec  ( 72.6% of F)
  XC integration            ....       5.654 sec  ( 16.8% of F)
    XC Preparation          ....       0.000 sec  (  0.0% of XC)
    Basis function eval.    ....       1.021 sec  ( 18.1% of XC)
    Density eval.           ....       0.713 sec  ( 12.6% of XC)
    XC-Functional eval.     ....       0.188 sec  (  3.3% of XC)
    XC-Potential eval.      ....       0.596 sec  ( 10.5% of XC)
Diagonalization             ....       0.000 sec  (  0.0%)
Density matrix formation    ....       0.298 sec  (  0.8%)
Total Energy calculation    ....       0.067 sec  (  0.2%)
Population analysis         ....       0.132 sec  (  0.4%)
Orbital Transformation      ....       0.136 sec  (  0.4%)
Orbital Orthonormalization  ....       0.000 sec  (  0.0%)
DIIS solution               ....       0.725 sec  (  2.0%)
SOSCF solution              ....       0.302 sec  (  0.8%)
Finished LeanSCF after  36.4 sec

Maximum memory used throughout the entire LEANSCF-calculation: 43.9 MB


           ************************************************************
           *        Program running with 24 parallel MPI-processes    *
           *              working on a common directory               *
           ************************************************************

------------------------------------------------------------------------------
                         ORCA PROPERTY INTEGRAL CALCULATIONS
------------------------------------------------------------------------------

GBWName                                   ... input.gbw
Number of atoms                           ...     35
Number of basis functions                 ...    319
Max core memory                           ...   2560 MB

Dipole integrals                          ... YES
Quadrupole integrals                      ...  NO
Linear momentum integrals                 ...  NO
Angular momentum integrals                ...  NO
Higher moments length integrals           ...  NO
Higher moments velocity integrals         ...  NO
Kinetic energy integrals                  ...  NO
GIAO right hand sides                     ...  NO
GIAO dipole derivative integrals          ...  NO
SOC integrals                             ...  NO
EPR diamagnetic integrals (GIAO)          ...  NO
EPR gauge integrals                       ...  NO
Field gradient integrals                  ...  NO (   0 nuclei)
Spin-dipole/Fermi contact integrals       ...  NO (   0 nuclei)
Contact density integrals                 ...  NO (   0 nuclei)
Nucleus-orbit integrals                   ...  NO (   0 nuclei)
Geometric perturbations                   ... YES (  35 nuclei)

Choice of electric origin   ... Center of mass
Position of electric origin ... (  7.2557,  3.7348, -0.1355) 
Choice of magnetic origin   ... GIAO
Position of magnetic origin ... (  0.0000,  0.0000,  0.0000) 

Calculating integrals                     ... Electric Dipole (Length)     done (  0.0 sec)
Calculating integrals                     ... Geometrical perturbation right hand sides

-----------------------
GEOMETRIC PERTURBATIONS (35 nuclei)
-----------------------

MaxCore                            ...   2560 MB
Number of batches                  ...      1

BATCH   0: Atoms    0 -   34 (105 perturbations)
   => H(core) and overlap derivative integrals     ... done (     0.4 sec)
   => Making and storing internal U-coefficients   ... done (     0.0 sec)
   => RI-J derivative integrals                    ... done (     5.2 sec)
   => RI-J response operators                      ... done (     1.2 sec)
   => Chain of spheres derivative integrals        ... done (     8.5 sec)
   => Chain of spheres response operator           ... done (    16.8 sec)
   => XC derivative integrals                      ... done (    20.9 sec)
   => XC response operators                        ... done (     7.1 sec)
   => Completing and storing right hand sides      ... done (     0.1 sec)
   => Total time for right hand sides =  62.5 sec

  geometrical perturbations done ( 62.7 sec)

Property integrals calculated in  62.7 sec

Maximum memory used throughout the entire PROPINT-calculation: 574.0 MB


-------------------------------------------------------------------------------
                          DFT DISPERSION CORRECTION                            
                                                                               
                              DFTD3 V3.1  Rev 1                                
                              USING zero damping                               
-------------------------------------------------------------------------------
The omegaB97X-D3 functional is recognized. Fit by Chai et al.
Active option DFTDOPT                   ...         3   

molecular C6(AA) [au] = 11964.694681 


            DFT-D V3
 parameters
 s6 scaling factor         :     1.0000 
 rs6 scaling factor        :     1.2810 
 s8 scaling factor         :     1.0000 
 rs8 scaling factor        :     1.0940 
 Damping factor alpha6     :    14.0000 
 Damping factor alpha8     :    16.0000 
 ad hoc parameters k1-k3   :    16.0000     1.3333    -4.0000 

 Edisp/kcal,au: -10.437957689551  -0.016633942606 
 E6   /kcal   :  -4.887661288 
 E8   /kcal   :  -5.550296401 
 % E8         :  53.174160753 

[...]
freq.     808.36  E(vib)   ...       0.05 
freq.     829.11  E(vib)   ...       0.04 
freq.     841.01  E(vib)   ...       0.04 
freq.     868.81  E(vib)   ...       0.04 
freq.     900.41  E(vib)   ...       0.03 
freq.     902.01  E(vib)   ...       0.03 
freq.     916.60  E(vib)   ...       0.03 
freq.     976.47  E(vib)   ...       0.03 
freq.     988.52  E(vib)   ...       0.02 
freq.    1009.00  E(vib)   ...       0.02 
freq.    1013.56  E(vib)   ...       0.02 
freq.    1027.20  E(vib)   ...       0.02 
freq.    1074.11  E(vib)   ...       0.02 
freq.    1081.67  E(vib)   ...       0.02 
freq.    1089.24  E(vib)   ...       0.02 
freq.    1089.90  E(vib)   ...       0.02 
freq.    1122.58  E(vib)   ...       0.01 
freq.    1123.91  E(vib)   ...       0.01 
freq.    1130.21  E(vib)   ...       0.01 
freq.    1153.48  E(vib)   ...       0.01 
freq.    1185.61  E(vib)   ...       0.01 
freq.    1187.39  E(vib)   ...       0.01 
freq.    1194.03  E(vib)   ...       0.01 
freq.    1209.28  E(vib)   ...       0.01 
freq.    1219.29  E(vib)   ...       0.01 
freq.    1259.64  E(vib)   ...       0.01 
freq.    1266.53  E(vib)   ...       0.01 
freq.    1282.17  E(vib)   ...       0.01 
freq.    1308.24  E(vib)   ...       0.01 
freq.    1331.42  E(vib)   ...       0.01 
freq.    1357.85  E(vib)   ...       0.01 
freq.    1376.02  E(vib)   ...       0.01 
freq.    1436.19  E(vib)   ...       0.00 
freq.    1457.22  E(vib)   ...       0.00 
freq.    1470.54  E(vib)   ...       0.00 
freq.    1483.28  E(vib)   ...       0.00 
freq.    1489.74  E(vib)   ...       0.00 
freq.    1497.11  E(vib)   ...       0.00 
freq.    1500.45  E(vib)   ...       0.00 
freq.    1500.67  E(vib)   ...       0.00 
freq.    1511.44  E(vib)   ...       0.00 
freq.    1517.84  E(vib)   ...       0.00 
freq.    1524.26  E(vib)   ...       0.00 
freq.    1532.98  E(vib)   ...       0.00 
freq.    1547.57  E(vib)   ...       0.00 
freq.    1551.75  E(vib)   ...       0.00 
freq.    1613.00  E(vib)   ...       0.00 
freq.    1662.97  E(vib)   ...       0.00 
freq.    1694.82  E(vib)   ...       0.00 
freq.    2565.74  E(vib)   ...       0.00 
freq.    3013.12  E(vib)   ...       0.00 
freq.    3018.33  E(vib)   ...       0.00 
freq.    3074.32  E(vib)   ...       0.00 
freq.    3116.54  E(vib)   ...       0.00 
freq.    3122.34  E(vib)   ...       0.00 
freq.    3154.59  E(vib)   ...       0.00 
freq.    3174.53  E(vib)   ...       0.00 
freq.    3188.22  E(vib)   ...       0.00 
freq.    3193.37  E(vib)   ...       0.00 
freq.    3207.79  E(vib)   ...       0.00 
freq.    3216.22  E(vib)   ...       0.00 
freq.    3227.70  E(vib)   ...       0.00 
freq.    3241.76  E(vib)   ...       0.00 
freq.    3274.39  E(vib)   ...       0.00 
freq.    3284.41  E(vib)   ...       0.00 
freq.    3304.67  E(vib)   ...       0.00 
freq.    3539.31  E(vib)   ...       0.00 

------------
INNER ENERGY
------------

The inner energy is: U= E(el) + E(ZPE) + E(vib) + E(rot) + E(trans)
    E(el)   - is the total energy from the electronic structure calculation
              = E(kin-el) + E(nuc-el) + E(el-el) + E(nuc-nuc)
    E(ZPE)  - the the zero temperature vibrational energy from the frequency calculation
    E(vib)  - the the finite temperature correction to E(ZPE) due to population
              of excited vibrational states
    E(rot)  - is the rotational thermal energy
    E(trans)- is the translational thermal energy

Summary of contributions to the inner energy U:
Electronic energy                ...   -640.96830026 Eh
Zero point energy                ...      0.29685545 Eh     186.28 kcal/mol
Thermal vibrational correction   ...      0.01221996 Eh       7.67 kcal/mol
Thermal rotational correction    ...      0.00141627 Eh       0.89 kcal/mol
Thermal translational correction ...      0.00141627 Eh       0.89 kcal/mol
-----------------------------------------------------------------------
Total thermal energy                   -640.65639230 Eh


Summary of corrections to the electronic energy:
(perhaps to be used in another calculation)
Total thermal correction                  0.01505250 Eh       9.45 kcal/mol
Non-thermal (ZPE) correction              0.29685545 Eh     186.28 kcal/mol
-----------------------------------------------------------------------
Total correction                          0.31190795 Eh     195.72 kcal/mol


--------
ENTHALPY
--------

The enthalpy is H = U + kB*T
                kB is Boltzmann's constant
Total thermal energy              ...   -640.65639230 Eh 
Thermal Enthalpy correction       ...      0.00094421 Eh       0.59 kcal/mol
-----------------------------------------------------------------------
Total Enthalpy                    ...   -640.65544809 Eh


Note: Only C1 symmetry has been detected, increase convergence thresholds 
      if your molecule has a higher symmetry. Symmetry factor of 1.0 is   
      used for the rotational entropy correction. 
 

Note: Rotational entropy computed according to Herzberg 
Infrared and Raman Spectra, Chapter V,1, Van Nostrand Reinhold, 1945 
Point Group:  C1, Symmetry Number:   1  
Rotational constants in cm-1:     0.028020     0.011461     0.010050 

Vibrational entropy computed according to the QRRHO of S. Grimme
Chem.Eur.J. 2012 18 9955 using a reference frequency of 100.0 cm-1


-------
ENTROPY
-------

The entropy contributions are T*S = T*(S(el)+S(vib)+S(rot)+S(trans))
     S(el)   - electronic entropy
     S(vib)  - vibrational entropy
     S(rot)  - rotational entropy
     S(trans)- translational entropy
The entropies will be listed as multiplied by the temperature to get
units of energy

Electronic entropy                ...      0.00000000 Eh      0.00 kcal/mol
Vibrational entropy               ...      0.02102514 Eh     13.19 kcal/mol
Rotational entropy                ...      0.01547984 Eh      9.71 kcal/mol
Translational entropy             ...      0.01994954 Eh     12.52 kcal/mol
-----------------------------------------------------------------------
Final entropy term                ...      0.05645452 Eh     35.43 kcal/mol

In case the symmetry of your molecule has not been determined correctly
or in case you have a reason to use a different symmetry number we print 
out the resulting rotational entropy values for sn=1,12:

 non-linear molecules -----------------------------------
|  sn= 1 | S(rot)=       0.01547984 Eh      9.71 kcal/mol|
|  sn= 2 | S(rot)=       0.01482538 Eh      9.30 kcal/mol|
|  sn= 3 | S(rot)=       0.01444255 Eh      9.06 kcal/mol|
|  sn= 4 | S(rot)=       0.01417092 Eh      8.89 kcal/mol|
|  sn= 5 | S(rot)=       0.01396024 Eh      8.76 kcal/mol|
|  sn= 6 | S(rot)=       0.01378809 Eh      8.65 kcal/mol|
|  sn= 7 | S(rot)=       0.01364255 Eh      8.56 kcal/mol|
|  sn= 8 | S(rot)=       0.01351647 Eh      8.48 kcal/mol|
|  sn= 9 | S(rot)=       0.01340526 Eh      8.41 kcal/mol|
|  sn=10 | S(rot)=       0.01330578 Eh      8.35 kcal/mol|
|  sn=11 | S(rot)=       0.01321579 Eh      8.29 kcal/mol|
|  sn=12 | S(rot)=       0.01313364 Eh      8.24 kcal/mol|
 linear molecules ---------------------------------------
|  Dinfh | S(rot)=       0.00966917 Eh      6.07 kcal/mol|
|  Cinfv | S(rot)=       0.01032363 Eh      6.48 kcal/mol|
 --------------------------------------------------------


-------------------
GIBBS FREE ENERGY
-------------------

The Gibbs free energy is G = H - T*S

Total enthalpy                    ...   -640.65544809 Eh 
Total entropy correction          ...     -0.05645452 Eh    -35.43 kcal/mol
-----------------------------------------------------------------------
Final Gibbs free energy         ...   -640.71190261 Eh

For completeness - the Gibbs free energy minus the electronic energy
G-E(el)                           ...      0.25639765 Eh    160.89 kcal/mol


Maximum memory used throughout the entire PROP-calculation: 178.6 MB



--------------------------------------------------------------------------------
                   Intrinsic Reaction Coordinate Calculation
--------------------------------------------------------------------------------

System:
Nr. of atoms                        .... 35
Algorithm: SD (steepest descent step) plus correction
Settings:
Max. no of cycles        MaxIter    .... 20
Direction                           .... Forward and backward
Initial displacement Hessian type   .... Read
Hessian Filename                    .... input.hess
Following Hessian mode              .... 0
Initial displacement type           .... Energy
  Initial displacement energy change.... 2.000 mEh
Coordinate system following type    .... Cartesian
Length of steepest descent step     .... 0.150 bohr
Do parabolic fit 
  if SD step is uphill              .... YES
Do Correction to SD step            .... YES
Scaling for length of correction
  compared to SD step               .... 0.333
Do parabolic fit to SD correction   .... YES
Only interpolate for parabolic fit  .... YES
Do update to length of
  SD step and correction            .... YES
Convergence Tolerances:
  Max. Gradient            TolMAXG  ....  2.0000e-03 Eh/bohr
  RMS Gradient             TolRMSG  ....  5.0000e-04 Eh/bohr
Storing full IRC trajectory in      .... input_IRC_Full_trj.xyz
Storing forward trajectory in       .... input_IRC_F_trj.xyz
Storing backward trajectory in      .... input_IRC_B_trj.xyz


 ...good, the file input.hess exists
Reading the hessian file           ...... done
Determining length of initial displacement:
  Requested energy change (quadratic behavior): 2.000 mEh
  Resulting scaling factor for initial displacement along normalized TS mode: 0.9122

         *************************************************************
         *                          FORWARD IRC                      *
         *************************************************************

Iteration    E(Eh)      dE(kcal/mol)  max(|G|)   RMS(G) 
Convergence thresholds                0.002000  0.000500            
    0      -640.970237   -1.215543    0.011187  0.002057
    1      -640.970529   -1.398621    0.005741  0.001036
    2      -640.970644   -1.470804    0.004641  0.000651
    3      -640.970801   -1.569301    0.003405  0.000583
    4      -640.970952   -1.664118    0.004353  0.000577
    5      -640.971099   -1.756239    0.003029  0.000575
    6      -640.971236   -1.841933    0.004171  0.000593
    7      -640.971295   -1.879218    0.003614  0.000492
    8      -640.971374   -1.929078    0.003440  0.000445
    9      -640.971459   -1.982206    0.003442  0.000442
   10      -640.971544   -2.035200    0.003395  0.000440
   11      -640.971628   -2.088056    0.003371  0.000439
   12      -640.971712   -2.140821    0.003351  0.000439
   13      -640.971796   -2.193508    0.003330  0.000438
   14      -640.971879   -2.245971    0.003301  0.000436
   15      -640.971963   -2.298128    0.003267  0.000433
   16      -640.972045   -2.349859    0.003212  0.000428
   17      -640.972126   -2.400852    0.003162  0.000424
   18      -640.972206   -2.450895    0.003102  0.000416
   19      -640.972285   -2.500549    0.003059  0.000411

         *************************************************************
         *  MAXIMUM NUMBER OF ITERATIONS REACHED - STOPPING IRC RUN  *
         *************************************************************


         *************************************************************
         *                          BACKWARD IRC                     *
         *************************************************************

Iteration    E(Eh)      dE(kcal/mol)  max(|G|)   RMS(G) 
Convergence thresholds                0.002000  0.000500            
    0      -640.960632    4.812041    0.038929  0.005716
    1      -640.965257    1.909661    0.010540  0.002143
    2      -640.966086    1.389555    0.009040  0.001626
    3      -640.966853    0.908050    0.007315  0.001051
    4      -640.967495    0.505559    0.005628  0.000761
    5      -640.967941    0.225733    0.003686  0.000560
    6      -640.968031    0.168795    0.003170  0.000579
    7      -640.968070    0.144473    0.002996  0.000427
    8      -640.968145    0.097232    0.002578  0.000353
    9      -640.968215    0.053797    0.002164  0.000301
   10      -640.968275    0.015892    0.001765  0.000263

                      ***********************HURRAY********************
                      ***            THE IRC HAS CONVERGED          ***
                      *************************************************


---------------------------------------------------------------
                       IRC PATH SUMMARY              
---------------------------------------------------------------
All gradients are in Eh/Bohr.

Step        E(Eh)      dE(kcal/mol)  max(|G|)   RMS(G) 
   1      -640.968275    0.015892    0.001765  0.000263
   2      -640.968215    0.053797    0.002164  0.000301
   3      -640.968145    0.097232    0.002578  0.000353
   4      -640.968070    0.144473    0.002996  0.000427
   5      -640.968031    0.168795    0.003170  0.000579
   6      -640.967941    0.225733    0.003686  0.000560
   7      -640.967495    0.505559    0.005628  0.000761
   8      -640.966853    0.908050    0.007315  0.001051
   9      -640.966086    1.389555    0.009040  0.001626
  10      -640.965257    1.909661    0.010540  0.002143
  11      -640.960632    4.812041    0.038929  0.005716
  12      -640.968300    0.000000    0.000986  0.000314 <= TS
  13      -640.970237   -1.215543    0.011187  0.002057
  14      -640.970529   -1.398621    0.005741  0.001036
  15      -640.970644   -1.470804    0.004641  0.000651
  16      -640.970801   -1.569301    0.003405  0.000583
  17      -640.970952   -1.664118    0.004353  0.000577
  18      -640.971099   -1.756239    0.003029  0.000575
  19      -640.971236   -1.841933    0.004171  0.000593
  20      -640.971295   -1.879218    0.003614  0.000492
  21      -640.971374   -1.929078    0.003440  0.000445
  22      -640.971459   -1.982206    0.003442  0.000442
  23      -640.971544   -2.035200    0.003395  0.000440
  24      -640.971628   -2.088056    0.003371  0.000439
  25      -640.971712   -2.140821    0.003351  0.000439
  26      -640.971796   -2.193508    0.003330  0.000438
  27      -640.971879   -2.245971    0.003301  0.000436
  28      -640.971963   -2.298128    0.003267  0.000433
  29      -640.972045   -2.349859    0.003212  0.000428
  30      -640.972126   -2.400852    0.003162  0.000424
  31      -640.972206   -2.450895    0.003102  0.000416
  32      -640.972285   -2.500549    0.003059  0.000411

--------------------------------
SUGGESTED CITATIONS FOR THIS RUN
--------------------------------

Below you find a list of papers that are relevant to this ORCA run
We neither can nor want to force you to cite these papers, but we appreciate if you do
You receive ORCA, which is the product of decades of hard work by many enthusiastic individuals, for free
The only thing we kindly ask in return is that you cite our papers,
We deeply appreciate it, if you show your appreciation for ORCA by not just citing the generic ORCA reference.

Please note that relegating all ORCA citations to the supporting information does *not* help us.
SI sections are not indexed - citations you put there will not count into any citation statistics
But we need these citations in order to attract the funding resources that allow us to do what we are doing

Therefore, if you are a happy ORCA user, please consider citing a few of the papers listed below in the main body of your paper

In addition to the list printed below, the program has created the file input.bibtex that contains the list in bibtex format
You can import this file easily into all common literature databanks and citation aid programs


List of essential papers. We consider these as the minimum necessary citations

  1. Neese,F.
     Software update: the ORCA program system, version 5.0
     WIRES Comput. Molec. Sci., 2022 12(1)e1606
     doi.org/10.1002/wcms.1606

List of papers to cite with high priority. The work reported in these papers was absolutely
necessary for this run to complete.
Our perspective: the developers of density functionals and basis sets usually get cited in chemistry papers
Good! But without the algorithms to do something with them, the functionals or basis sets would not do anything.
Hence, in our opinion, the algorithm design and method developments papers are equally worthy of getting cited

  1. Neese,F.
     An improvement of the resolution of the identity approximation for the formation of the Coulomb matrix
     J. Comp. Chem., 2003 24(14)1740-1747
     doi.org/10.1002/jcc.10318
  2. Neese,F.; Wennmohs,F.; Hansen,A.; Becker,U.
     Efficient, approximate and parallel Hartree-Fock and hybrid DFT calculations. A 'chain-of-spheres' algorithm for the Hartree-Fock exchange
     Chem. Phys., 2009 356(1-3)98-109
     doi.org/10.1016/j.chemphys.2008.10.036
  3. Bykov,D.; Petrenko,T.; Izsak,R.; Kossmann,S.; Becker,U.; Valeev,E.; Neese,F.
     Efficient implementation of the analytic second derivatives of Hartree-Fock and hybrid DFT energies: a detailed analysis of different approximations
     Molec. Phys., 2015 113 1961-1977
     doi.org/10.1080/00268976.2015.1025114
  4. Helmich-Paris,B.; de Souza,B.; Neese,F.; Izsák,R.
     An improved chain of spheres for exchange algorithm
     J. Chem. Phys., 2021 155 104109
     doi.org/doi: 10.1063/5.0058766.
  5. Neese,F.
     The SHARK Integral Generation and Digestion System
     J. Comp. Chem., 2022  1-16
     doi.org/10.1002/jcc.26942
  6. Grimme,S.; Antony,J.; Ehrlich,S.; Krieg,H.
     A consistent and accurate ab initio parametrization of density functional dispersion correction (DFT-D) for the 94 elements H-Pu
     J. Chem. Phys., 2010 132 154104
     doi.org/10.1063/1.3382344

List of suggested additional citations. These are papers that are important in the 'surrounding' of 
of this run, or papers that preceded the highly important papers. If you like your results we are grateful for a citation.

  1. Izsak,R.; Neese,F.
     An overlap fitted chain of spheres exchange method
     J. Chem. Phys., 2011 135 144105
     doi.org/10.1063/1.3646921
  2. Izsak,R.; Hansen,A.; Neese,F.
     The resolution of identity and chain of spheres approximations for the LPNO-CCSD singles Fock term
     Molec. Phys., 2012 110 2413-2417
     doi.org/10.1080/00268976.2012.687466
  3. Neese,F.
     The ORCA program system
     WIRES Comput. Molec. Sci., 2012 2(1)73-78
     doi.org/10.1002/wcms.81
  4. Izsak,R.; Neese,F.; Klopper,W.
     Robust fitting techniques in the chain of spheres approximation to the Fock exchange: The role of the complementary space
     J. Chem. Phys., 2013 139 
     doi.org/10.1063/1.4819264
  5. Neese,F.
     Software update: the ORCA program system, version 4.0
     WIRES Comput. Molec. Sci., 2018 8(1)1-6
     doi.org/10.1002/wcms.1327
  6. Neese,F.; Wennmohs,F.; Becker,U.; Riplinger,C.
     The ORCA quantum chemistry program package
     J. Chem. Phys., 2020 152 Art. No. L224108
     doi.org/10.1063/5.0004608

List of optional additional citations

  1. Neese,F.
     Approximate second-order SCF convergence for spin unrestricted wavefunctions
     Chem. Phys. Lett., 2000 325(1-3)93-98
     doi.org/10.1016/s0009-2614(00)00662-x

Timings for individual modules:

Sum of individual times          ...     4791.260 sec (=  79.854 min)
Startup calculation              ...      596.446 sec (=   9.941 min)  12.4 %
SCF iterations                   ...     3045.354 sec (=  50.756 min)  63.6 %
Property integrals               ...      175.896 sec (=   2.932 min)   3.7 %
SCF Response                     ...      113.437 sec (=   1.891 min)   2.4 %
Property calculations            ...      125.496 sec (=   2.092 min)   2.6 %
SCF Gradient evaluation          ...      734.632 sec (=  12.244 min)  15.3 %
                             ****ORCA TERMINATED NORMALLY****
TOTAL RUN TIME: 0 days 1 hours 25 minutes 27 seconds 170 msec
