
                                 *****************
                                 * O   R   C   A *
                                 *****************

                                            #,                                       
                                            ###                                      
                                            ####                                     
                                            #####                                    
                                            ######                                   
                                           ########,                                 
                                     ,,################,,,,,                         
                               ,,#################################,,                 
                          ,,##########################################,,             
                       ,#########################################, ''#####,          
                    ,#############################################,,   '####,        
                  ,##################################################,,,,####,       
                ,###########''''           ''''###############################       
              ,#####''   ,,,,##########,,,,          '''####'''          '####       
            ,##' ,,,,###########################,,,                        '##       
           ' ,,###''''                  '''############,,,                           
         ,,##''                                '''############,,,,        ,,,,,,###''
      ,#''                                            '''#######################'''  
     '                                                          ''''####''''         
             ,#######,   #######,   ,#######,      ##                                
            ,#'     '#,  ##    ##  ,#'     '#,    #''#        ,####,   ,####,        
            ##       ##  ##   ,#'  ##            #'  '#       #'       #'  '#        
            ##       ##  #######   ##           ,######,      #####,   #    #        
            '#,     ,#'  ##    ##  '#,     ,#' ,#      #,     #,   #   #,  ,#        
             '#######'   ##     ##  '#######'  #'      '#     '####' # '####'        



                #########################################################
                #                        -***-                          #
                #          Department of theory and spectroscopy        #
                #                                                       #
                #                      Frank Neese                      #
                #                                                       #
                #     Directorship, Architecture, Infrastructure        #
                #                    SHARK, DRIVERS                     #
                #        Core code/Algorithms in most modules           #
                #                                                       #
                #        Max Planck Institute fuer Kohlenforschung      #
                #                Kaiser Wilhelm Platz 1                 #
                #                 D-45470 Muelheim/Ruhr                 #
                #                      Germany                          #
                #                                                       #
                #                  All rights reserved                  #
                #                        -***-                          #
                #########################################################


                         Program Version 6.0.1  -  RELEASE   -


 With contributions from (in alphabetic order):
[Max-Planck-Institut fuer Kohlenforschung]                               
  Daniel Aravena         : Magnetic Suceptibility                        
  Michael Atanasov       : Ab Initio Ligand Field Theory (pilot matlab implementation)
  Alexander A. Auer      : GIAO ZORA, VPT2 properties, NMR spectrum      
  Ute Becker             : All parallelization in ORCA, NUMFREQ, NUMCALC 
  Giovanni Bistoni       : ED, misc. LED, open-shell LED, HFLD           
  Martin Brehm           : Molecular dynamics                            
  Dmytro Bykov           : pre 5.0 version of the SCF Hessian            
  Marcos Casanova-Páez   : Triplet and SCS-CIS(D). UHF-(DLPNO)-IP/EA/STEOM-CCSD. UHF-CVS-IP/STEOM-CCSD   
  Vijay G. Chilkuri      : MRCI spin determinant printing, contributions to CSF-ICE 
  Pauline Colinet        : FMM embedding                                 
  Dipayan Datta          : RHF DLPNO-CCSD density                        
  Achintya Kumar Dutta   : EOM-CC, STEOM-CC                              
  Nicolas Foglia         : Exact transition moments, OPA infrastructure, MCD improvements    
  Dmitry Ganyushin       : Spin-Orbit,Spin-Spin,Magnetic field MRCI      
  Miquel Garcia-Rates    : C-PCM and meta-GGA Hessian, CCSD/C-PCM, Gaussian charge scheme 
  Tiago L. C. Gouveia    : GS-ROHF, GS-ROCIS                             
  Yang Guo               : DLPNO-NEVPT2, F12-NEVPT2, CIM, IAO-localization        
  Andreas Hansen         : Spin unrestricted coupled pair/coupled cluster methods 
  Ingolf Harden          : AUTO-CI MPn and infrastructure                
  Benjamin Helmich-Paris : MC-RPA, TRAH-(SCF,CASSCF), AVAS, COSX integrals, SCF dyn. polar. 
  Lee Huntington         : MR-EOM, pCC                                   
  Robert Izsak           : Overlap fitted RIJCOSX, COSX-SCS-MP3, EOM     
  Riya Kayal             : Wick's Theorem for AUTO-CI, AUTO-CI UHF-CCSDT 
  Emily Kempfer          : AUTO-CI, RHF CISDT and CCSDT                  
  Christian Kollmar      : KDIIS, OOCD, Brueckner-CCSD(T), CCSD density, CASPT2, CASPT2-K, improved NEVPT2 
  Axel Koslowski         : Symmetry handling                             
  Simone Kossmann        : meta-GGA functionals, TD-DFT gradient, OOMP2, (MP2 Hessian; deprecated post 5.0) 
  Lucas Lang             : DCDCAS                                        
  Marvin Lechner         : AUTO-CI (C++ implementation), FIC-MRCC        
  Spencer Leger          : CASSCF response                               
  Dagmar Lenk            : GEPOL surface, SMD, ORCA-2-JSON               
  Dimitrios Liakos       : Extrapolation schemes; Compound Job, initial MDCI parallelization 
  Dimitrios Manganas     : Further ROCIS development; embedding schemes. LFT, Crystal Embedding 
  Dimitrios Pantazis     : SARC Basis sets                               
  Anastasios Papadopoulos: AUTO-CI, single reference methods and gradients 
  Taras Petrenko         : pre 6.0 DFT Hessian and TD-DFT gradient, (ASA, deprecated), ECA, 1-Electron XAS/XES, NRVS 
  Peter Pinski           : DLPNO-MP2, DLPNO-MP2 Gradient                 
  Christoph Reimann      : Effective Core Potentials                     
  Marius Retegan         : Local ZFS, SOC                                
  Christoph Riplinger    : Optimizer, TS searches, QM/MM, DLPNO-CCSD(T), (RO)-DLPNO pert. Triples 
  Michael Roemelt        : Original ROCIS implementation                 
  Masaaki Saitow         : Open-shell DLPNO-CCSD energy and density      
  Barbara Sandhoefer     : DKH picture change effects                    
  Kantharuban Sivalingam : CASSCF convergence/infrastructure, NEVPT2 and variants, FIC-MRCI 
  Bernardo de Souza      : ESD, SOC TD-DFT                               
  Georgi L. Stoychev     : AutoAux, RI-MP2 NMR, DLPNO-MP2 response, X2C  
  Van Anh Tran           : RI-MP2 g-tensors                              
  Willem Van den Heuvel  : Paramagnetic NMR                              
  Zikuan Wang            : NOTCH, Electric field optimization            
  Frank Wennmohs         : Technical directorship and infrastructure     
  Hang Xu                : AUTO-CI-Response properties                   
                                                                         
[FACCTs GmbH]                                                            
  Markus Bursch, Miquel Garcia-Rates, Christoph Riplinger, Bernardo de Souza, Georgi L. Stoychev 
                                                                 
  APM, Basis sets (HGBS, AHGBS, def-TZVP (Ac-Lr), def2-XVPD (La-Lu)), CI-OPT, improved COSX, DLPNO-Multilevel,           
  DOCKER, DRACO, updates on ESD, GOAT, IRC, LR-CPCM, MBIS, meta-GGA TD-DFT gradient, ML-optimized integration grids, 
  MM, NACMEs, nearIR, NEB, NEB-TS, NL-DFT gradient (VV10), 2- and 3-layer-ONIOM, interface openCOSMO-RS, QMMM,   
  Crystal-QMMM, SF, symmetry and pop. for TD-DFT, r2SCAN hybrids, SOLVATOR                                   
                                                                         
[Other institutions]                                                     
  V. Asgeirsson          : NEB                                           
  Christoph Bannwarth    : sTDA-DFT, sTD-DFT, PBEh-3c, B97-3c, D3        
  Sebastian Ehlert       : rSCAN, r2SCAN, r2SCAN-3c, D4, dhf basis sets  
  Marvin Friede          : D4 for Fr, Ra, Ac-Lr                          
  Lars Goerigk           : TD-DFT with DH, B97 family of functionals     
  Stefan Grimme          : VdW corrections, initial TS optimization, DFT functionals, gCP, sTDA/sTD-DF 
  Waldemar Hujo          : DFT-NL                                        
  H. Jonsson             : NEB                                           
  Holger Kruse           : gCP                                           
  Marcel Mueller         : wB97X-3c, vDZP basis set                      
  Hagen Neugebauer       : wr2SCAN                                       
  Tobias Risthaus        : range-separated hybrid DFT                    
  Lukas Wittmann         : regularized MP2, r2SCAN double-hybrids, wr2SCAN        
                                                                         
We gratefully acknowledge several colleagues who have allowed us to      
interface, adapt or use parts of their codes:                            
  Ed Valeev, F. Pavosevic, A. Kumar             : LibInt (2-el integral package), F12 methods 
  Garnet Chan, S. Sharma, J. Yang, R. Olivares  : DMRG                   
  Ulf Ekstrom                                   : XCFun DFT Library      
  Mihaly Kallay                                 : mrcc  (arbitrary order and MRCC methods)
  Frank Weinhold                                : gennbo (NPA and NBO analysis)           
  Simon Mueller                                 : openCOSMO-RS                            
  Christopher J. Cramer and Donald G. Truhlar   : smd solvation model                     
  S Lehtola, MJT Oliveira, MAL Marques          : LibXC Library                           
  Liviu Ungur et al                             : ANISO software                          


 Your calculation uses the libint2 library for the computation of 2-el integrals
 For citations please refer to: http://libint.valeyev.net

 Your ORCA version has been built with support for libXC version: 6.2.2
 For citations please refer to: https://libxc.gitlab.io

 This ORCA versions uses:
   CBLAS   interface :  Fast vector & matrix operations
   LAPACKE interface :  Fast linear algebra routines
   SCALAPACK package :  Parallel linear algebra routines
   Shared memory     :  Shared parallel matrices
   BLAS/LAPACK       :  OpenBLAS 0.3.27  USE64BITINT DYNAMIC_ARCH NO_AFFINITY Haswell SINGLE_THREADED
        Core in use  :  Haswell
   Copyright (c) 2011-2014, The OpenBLAS Project


NOTE: MaxCore=2560 MB was set to SCF,MP2,MDCI,CIPSI,MRCI and CIS
      => If you want to overwrite this, your respective input block should be placed after the MaxCore statement
Your calculation utilizes the atom-pairwise dispersion correction
with the zero-damping scheme (D30)


XCFun DFT library Copyright 2009-2010 Ulf Ekstrom and contributors.
See http://admol.org/xcfun for more information.
This is free software; see the source code for copying conditions.
There is ABSOLUTELY NO WARRANTY; not even for MERCHANTABILITY or FITNESS FOR A PARTICULAR PURPOSE.
For details see the documentation.
Scientific users of this library should cite U. Ekstrom, L. Visscher, R. Bast, A. J. Thorvaldsen and K. Ruud;
J.Chem.Theor.Comp. 2010, DOI: 10.1021/ct100117s
XCFun Version 0.99 

Warning: RI is on but no J-basis has been assigned. Assigning Def2/J (nothing to worry about!)
================================================================================

----- Orbital basis set information -----
Your calculation utilizes the basis: 6-31G**
   H-He, Li-Ne : W. J. Hehre, R. Ditchfield and J.A. Pople, J. Chem. Phys. 56, 2257 (1972).
                 Note: He and Ne are unpublished basis sets taken from the Gaussian program.
                 Note: Li and B from J. D. Dill and J. A. Pople, J. Chem. Phys. 62, 2921 (1975).
   Na - Ar     : M. M. Francl, W. J. Pietro, W. J. Hehre, J. S. Binkley, M. S. Gordon, 
                 D. J. DeFrees and J. A. Pople, J. Chem. Phys. 77, 3654 (1982).
   K - Zn      : V. A. Rassolov, J. A. Pople, M. A. Ratner, and T. L. Windus, J. Chem. Phys. 109, 1223 (1998).

----- AuxJ basis set information -----
Your calculation utilizes the auxiliary basis: def2/J
   F. Weigend, Phys. Chem. Chem. Phys. 8, 1057 (2006).

================================================================================
                                        WARNINGS
                       Please study these warnings very carefully!
================================================================================

WARNING: SinglePoint found together with IRC
         Switching on EnGrad - energy plus gradient calculation

================================================================================
                                       INPUT FILE
================================================================================
NAME = input.inp
|  1> # Automatically generated ORCA input
|  2> 
|  3> # Number of cores
|  4> %pal nprocs 24 end
|  5> # RAM per core
|  6> %maxcore 2560
|  7> 
|  8> ! wB97X-D3 
|  9> ! 6-31G** 
| 10> ! TightSCF 
| 11> ! Freq 
| 12> ! NoSym 
| 13> ! IRC 
| 14> 
| 15> %geom
| 16>     Calc_Hess true
| 17>     end
| 18> 
| 19> %geom
| 20>   Calc_Hess true
| 21> end
| 22> 
| 23> 
| 24> *xyz 0 1 
| 25> H         1.31467300      0.11213300      2.67179500
| 26> C         2.10352400      0.08548400      1.92659100
| 27> C         2.78823000      1.24806400      1.59503300
| 28> C         2.43479000     -1.10557800      1.29320000
| 29> C         3.81886800      1.26670400      0.64291600
| 30> H         2.51166400      2.17875200      2.08350500
| 31> C         3.44245400     -1.11325300      0.33667300
| 32> H         1.91263700     -2.02584700      1.53584700
| 33> C         4.13980100      0.05355200      0.00161100
| 34> H         3.69293400     -2.04309200     -0.15911000
| 35> B         4.50562100      2.68757200      0.44199300
| 36> H         5.52964600      1.87819600     -0.90718600
| 37> H         5.64204400      2.65108000     -0.82017600
| 38> C         3.63864500      3.83672100     -0.13411400
| 39> C         2.36244500      3.79262100     -0.68430500
| 40> H         8.49465700     -0.61144300     -1.34813400
| 41> H         7.72659200      0.96854600     -1.46734500
| 42> H         5.54695400      0.18669000     -4.38282700
| 43> H         6.01147000      1.43019900     -3.22578500
| 44> H         7.95051500     -0.00973600     -3.71730100
| 45> H         7.06515200     -1.44393900     -3.23145400
| 46> N         5.17325900      0.04177700     -1.00370400
| 47> C         6.86572600      0.02025200      0.78708300
| 48> H         7.87275900     -0.32109600      1.04518200
| 49> H         6.86815700      1.11276700      0.78257600
| 50> H         6.18254700     -0.31446000      1.57101700
| 51> C         6.49288100     -2.08913000     -0.45281400
| 52> C         1.98688600      5.09781200     -1.06410000
| 53> H         1.77446900      2.89025200     -0.78204600
| 54> C         3.04661400      5.91967500     -0.74257700
| 55> H         1.05775100      5.41109800     -1.51737600
| 56> H         3.17178900      6.98594000     -0.86887500
| 57> N         4.03246900      5.16517000     -0.18449900
| 58> C         5.30375900      5.67847800      0.27785400
| 59> H         5.43711700      5.48470300      1.34486300
| 60> H         6.13343600      5.21494500     -0.26378000
| 61> H         5.33568400      6.75572600      0.10762500
| 62> C         6.47998200     -0.55189600     -0.58639700
| 63> C         4.70048700     -0.07776200     -2.41872100
| 64> C         7.55417800     -0.10761500     -1.59662600
| 65> C         5.85463600      0.35048200     -3.34447600
| 66> C         7.16376100     -0.36793300     -3.04535000
| 67> H         5.75656200     -2.42622300      0.27949000
| 68> H         6.30263200     -2.60223400     -1.39579000
| 69> H         7.47691200     -2.41088500     -0.09670700
| 70> C         4.19034600     -1.47290700     -2.83763000
| 71> H         3.84518900     -1.42908100     -3.87567200
| 72> H         4.95549900     -2.24770100     -2.78061800
| 73> H         3.33953200     -1.78197400     -2.22726300
| 74> C         3.53913000      0.90610100     -2.63318000
| 75> H         2.65294300      0.61231300     -2.06510200
| 76> H         3.80241000      1.92587300     -2.34217100
| 77> H         3.27188500      0.91587700     -3.69426500
| 78> H         5.41698100      2.96609400      1.17991200
| 79> *
| 80> 
| 81> 
| 82>                          ****END OF INPUT****
================================================================================

                     *******************************
                     * Energy+Gradient Calculation *
                     *******************************

---------------------------------
CARTESIAN COORDINATES (ANGSTROEM)
---------------------------------
  H      1.314673    0.112133    2.671795
  C      2.103524    0.085484    1.926591
  C      2.788230    1.248064    1.595033
  C      2.434790   -1.105578    1.293200
  C      3.818868    1.266704    0.642916
  H      2.511664    2.178752    2.083505
  C      3.442454   -1.113253    0.336673
  H      1.912637   -2.025847    1.535847
  C      4.139801    0.053552    0.001611
  H      3.692934   -2.043092   -0.159110
  B      4.505621    2.687572    0.441993
  H      5.529646    1.878196   -0.907186
  H      5.642044    2.651080   -0.820176
  C      3.638645    3.836721   -0.134114
  C      2.362445    3.792621   -0.684305
  H      8.494657   -0.611443   -1.348134
  H      7.726592    0.968546   -1.467345
  H      5.546954    0.186690   -4.382827
  H      6.011470    1.430199   -3.225785
  H      7.950515   -0.009736   -3.717301
  H      7.065152   -1.443939   -3.231454
  N      5.173259    0.041777   -1.003704
  C      6.865726    0.020252    0.787083
  H      7.872759   -0.321096    1.045182
  H      6.868157    1.112767    0.782576
  H      6.182547   -0.314460    1.571017
  C      6.492881   -2.089130   -0.452814
  C      1.986886    5.097812   -1.064100
  H      1.774469    2.890252   -0.782046
  C      3.046614    5.919675   -0.742577
  H      1.057751    5.411098   -1.517376
  H      3.171789    6.985940   -0.868875
  N      4.032469    5.165170   -0.184499
  C      5.303759    5.678478    0.277854
  H      5.437117    5.484703    1.344863
  H      6.133436    5.214945   -0.263780
  H      5.335684    6.755726    0.107625
  C      6.479982   -0.551896   -0.586397
  C      4.700487   -0.077762   -2.418721
  C      7.554178   -0.107615   -1.596626
  C      5.854636    0.350482   -3.344476
  C      7.163761   -0.367933   -3.045350
  H      5.756562   -2.426223    0.279490
  H      6.302632   -2.602234   -1.395790
  H      7.476912   -2.410885   -0.096707
  C      4.190346   -1.472907   -2.837630
  H      3.845189   -1.429081   -3.875672
  H      4.955499   -2.247701   -2.780618
  H      3.339532   -1.781974   -2.227263
  C      3.539130    0.906101   -2.633180
  H      2.652943    0.612313   -2.065102
  H      3.802410    1.925873   -2.342171
  H      3.271885    0.915877   -3.694265
  H      5.416981    2.966094    1.179912

----------------------------
CARTESIAN COORDINATES (A.U.)
----------------------------
  NO LB      ZA    FRAG     MASS         X           Y           Z
   0 H     1.0000    0     1.008    2.484372    0.211901    5.048961
   1 C     6.0000    0    12.011    3.975084    0.161541    3.640729
   2 C     6.0000    0    12.011    5.268991    2.358499    3.014176
   3 C     6.0000    0    12.011    4.601086   -2.089240    2.443794
   4 C     6.0000    0    12.011    7.216615    2.393724    1.214935
   5 H     1.0000    0     1.008    4.746357    4.117245    3.937254
   6 C     6.0000    0    12.011    6.505295   -2.103743    0.636220
   7 H     1.0000    0     1.008    3.614360   -3.828296    2.902330
   8 C     6.0000    0    12.011    7.823090    0.101199    0.003044
   9 H     1.0000    0     1.008    6.978634   -3.860884   -0.300674
  10 B     5.0000    0    10.810    8.514390    5.078775    0.835246
  11 H     1.0000    0     1.008   10.449517    3.549276   -1.714333
  12 H     1.0000    0     1.008   10.661918    5.009815   -1.549908
  13 C     6.0000    0    12.011    6.876043    7.250352   -0.253439
  14 C     6.0000    0    12.011    4.464374    7.167015   -1.293149
  15 H     1.0000    0     1.008   16.052575   -1.155460   -2.547604
  16 H     1.0000    0     1.008   14.601143    1.830287   -2.772880
  17 H     1.0000    0     1.008   10.482224    0.352793   -8.282343
  18 H     1.0000    0     1.008   11.360032    2.702684   -6.095850
  19 H     1.0000    0     1.008   15.024296   -0.018398   -7.024681
  20 H     1.0000    0     1.008   13.351202   -2.728649   -6.106563
  21 N     7.0000    0    14.007    9.776043    0.078947   -1.896726
  22 C     6.0000    0    12.011   12.974342    0.038271    1.487371
  23 H     1.0000    0     1.008   14.877358   -0.606784    1.975108
  24 H     1.0000    0     1.008   12.978936    2.102825    1.478854
  25 H     1.0000    0     1.008   11.683321   -0.594243    2.968792
  26 C     6.0000    0    12.011   12.269767   -3.947884   -0.855694
  27 C     6.0000    0    12.011    3.754670    9.633469   -2.010858
  28 H     1.0000    0     1.008    3.353260    5.461785   -1.477853
  29 C     6.0000    0    12.011    5.757266   11.186565   -1.403267
  30 H     1.0000    0     1.008    1.998860   10.225493   -2.867425
  31 H     1.0000    0     1.008    5.993813   13.201513   -1.641936
  32 N     7.0000    0    14.007    7.620262    9.760757   -0.348653
  33 C     6.0000    0    12.011   10.022652   10.730768    0.525068
  34 H     1.0000    0     1.008   10.274662   10.364587    2.541423
  35 H     1.0000    0     1.008   11.590514    9.854818   -0.498472
  36 H     1.0000    0     1.008   10.082981   12.766472    0.203382
  37 C     6.0000    0    12.011   12.245391   -1.042932   -1.108130
  38 C     6.0000    0    12.011    8.882633   -0.146949   -4.570720
  39 C     6.0000    0    12.011   14.275328   -0.203363   -3.017186
  40 C     6.0000    0    12.011   11.063659    0.662315   -6.320144
  41 C     6.0000    0    12.011   13.537546   -0.695293   -5.754877
  42 H     1.0000    0     1.008   10.878326   -4.584897    0.528160
  43 H     1.0000    0     1.008   11.910248   -4.917510   -2.637661
  44 H     1.0000    0     1.008   14.129316   -4.555912   -0.182750
  45 C     6.0000    0    12.011    7.918606   -2.783391   -5.362344
  46 H     1.0000    0     1.008    7.266354   -2.700572   -7.323959
  47 H     1.0000    0     1.008    9.364536   -4.247539   -5.254607
  48 H     1.0000    0     1.008    6.310801   -3.367443   -4.208917
  49 C     6.0000    0    12.011    6.687986    1.712283   -4.975989
  50 H     1.0000    0     1.008    5.013336    1.157104   -3.902477
  51 H     1.0000    0     1.008    7.185514    3.639373   -4.426062
  52 H     1.0000    0     1.008    6.182967    1.730757   -6.981149
  53 H     1.0000    0     1.008   10.236611    5.605105    2.229711

--------------------------------
INTERNAL COORDINATES (ANGSTROEM)
--------------------------------
 H      0   0   0     0.000000000000     0.00000000     0.00000000
 C      1   0   0     1.085506826795     0.00000000     0.00000000
 C      2   1   0     1.389368658852   120.09406055     0.00000000
 C      2   1   3     1.389082434372   120.48984053   180.23136835
 C      3   2   1     1.403242287822   122.34354145   179.74771279
 H      3   2   1     1.086864205172   118.93871206   359.23294068
 C      4   2   1     1.389384591915   119.44677760   179.60046942
 H      4   2   1     1.085548872405   120.68140653   359.81882399
 C      7   4   2     1.399997603669   121.42754178     0.42267445
 H      7   4   2     1.083116604715   119.18267871   180.38905017
 B      5   3   2     1.590869450446   114.49520447   181.85024724
 H     11   5   3     1.877232187035    86.62750780   183.24280906
 H     12  11   5     0.785845867814    64.81152894   175.98643613
 C     11   5   3     1.550512845553   117.87157644   295.20375457
 C     14  11   5     1.390446470196   129.54830085   350.46943956
 H     12  11   5     3.896668797723   140.52242141   286.70828664
 H     16  12  11     1.760823769395    26.16297107   245.41508610
 H     17  16  12     3.723191629248    96.88885586   285.23335284
 H     18  17  16     1.760919060349    35.19000050   179.69692281
 H     17  16  12     2.463631300213    70.48063920   252.30458051
 H     20  17  16     1.754096118913    91.48070500    56.23924055
 N      9   7   4     1.441815639260   121.13780393   180.76697374
 C     22   9   7     2.464107536428    89.17817256   258.65711524
 H     23  22   9     1.094188746969   143.73501811   149.44384005
 H     23  22   9     1.092527001055    89.41528315   270.22015183
 H     23  22   9     1.092391040489    95.43180935    18.35167204
 C     23  22   9     2.475045532219    62.60678950   105.79713033
 C     15  14  11     1.410252584109   108.76187452   179.67695565
 H     15  14  11     1.081452214302   124.14197669     0.25391145
 C     28  15  14     1.379079136338   106.50669078     0.21779658
 H     28  15  14     1.080231039268   127.62377425   180.26581167
 H     30  28  15     1.080990756507   130.50953607   179.81770636
 N     30  28  15     1.361116795185   108.77266965   359.75783622
 C     33  30  28     1.446870299499   124.80365017   179.82828068
 H     34  33  30     1.092630455767   110.87827959   120.00863500
 H     34  33  30     1.093889462594   110.96913797   240.54988490
 H     34  33  30     1.091082202022   109.03379984     0.12202283
 C     22   9   7     1.494696545091   115.79859386   284.07668758
 C     22   9   7     1.496688359945   115.68648566    73.29093733
 C     16  12  11     1.095486958886    22.86554069   147.19332697
 C     18  17  16     1.095293947573    20.24770237   100.05728029
 C     20  17  16     1.094899581572    60.27186742    76.76732661
 H     27  23  22     1.091817983377    91.64574407   267.40727103
 H     27  23  22     1.090263332133   149.39117189    39.60160691
 H     27  23  22     1.094831258430    87.25605942   160.16949121
 C     39  22   9     1.543424167618   115.67122924   286.30667274
 H     46  39  22     1.094799190121   108.98762341   178.25350904
 H     46  39  22     1.090419746698   113.33840619   297.79960526
 H     46  39  22     1.091766801004   111.20661304    60.28646480
 C     39  22   9     1.537117154578   108.62935668    46.48762478
 H     50  39  22     1.092863853367   111.59652479   292.09459373
 H     50  39  22     1.092674484220   112.21970636    53.38238989
 H     50  39  22     1.094265432802   108.99762499   172.94515698
 H     11   5   3     1.205270096138   117.09607396    86.75687361

---------------------------
INTERNAL COORDINATES (A.U.)
---------------------------
 H      0   0   0     0.000000000000     0.00000000     0.00000000
 C      1   0   0     2.051310619144     0.00000000     0.00000000
 C      2   1   0     2.625526264284   120.09406055     0.00000000
 C      2   1   3     2.624985378404   120.48984053   180.23136835
 C      3   2   1     2.651743623521   122.34354145   179.74771279
 H      3   2   1     2.053875692537   118.93871206   359.23294068
 C      4   2   1     2.625556373409   119.44677760   179.60046942
 H      4   2   1     2.051390073832   120.68140653   359.81882399
 C      7   4   2     2.645612059080   121.42754178     0.42267445
 H      7   4   2     2.046793754015   119.18267871   180.38905017
 B      5   3   2     3.006307576165   114.49520447   181.85024724
 H     11   5   3     3.547454723279    86.62750780   183.24280906
 H     12  11   5     1.485033473642    64.81152894   175.98643613
 C     11   5   3     2.930044645223   117.87157644   295.20375457
 C     14  11   5     2.627563032548   129.54830085   350.46943956
 H     12  11   5     7.363636862292   140.52242141   286.70828664
 H     16  12  11     3.327474694256    26.16297107   245.41508610
 H     17  16  12     7.035812523387    96.88885586   285.23335284
 H     18  17  16     3.327654768062    35.19000050   179.69692281
 H     17  16  12     4.655588452359    70.48063920   252.30458051
 H     20  17  16     3.314761277320    91.48070500    56.23924055
 N      9   7   4     2.724636693806   121.13780393   180.76697374
 C     22   9   7     4.656488408381    89.17817256   258.65711524
 H     23  22   9     2.067717070590   143.73501811   149.44384005
 H     23  22   9     2.064576825909    89.41528315   270.22015183
 H     23  22   9     2.064319897674    95.43180935    18.35167204
 C     23  22   9     4.677158224880    62.60678950   105.79713033
 C     15  14  11     2.664991163621   108.76187452   179.67695565
 H     15  14  11     2.043648511953   124.14197669     0.25391145
 C     28  15  14     2.606081884683   106.50669078     0.21779658
 H     28  15  14     2.041340825577   127.62377425   180.26581167
 H     30  28  15     2.042776483099   130.50953607   179.81770636
 N     30  28  15     2.572137979180   108.77266965   359.75783622
 C     33  30  28     2.734188617358   124.80365017   179.82828068
 H     34  33  30     2.064772326982   110.87827959   120.00863500
 H     34  33  30     2.067151505085   110.96913797   240.54988490
 H     34  33  30     2.061846551418   109.03379984     0.12202283
 C     22   9   7     2.824567123540   115.79859386   284.07668758
 C     22   9   7     2.828331108123   115.68648566    73.29093733
 C     16  12  11     2.070170335577    22.86554069   147.19332697
 C     18  17  16     2.069805597054    20.24770237   100.05728029
 C     20  17  16     2.069060353316    60.27186742    76.76732661
 H     27  23  22     2.063236976673    91.64574407   267.40727103
 H     27  23  22     2.060299111587   149.39117189    39.60160691
 H     27  23  22     2.068931241289    87.25605942   160.16949121
 C     39  22   9     2.916648985273   115.67122924   286.30667274
 H     46  39  22     2.068870640967   108.98762341   178.25350904
 H     46  39  22     2.060594692279   113.33840619   297.79960526
 H     46  39  22     2.063140256004   111.20661304    60.28646480
 C     39  22   9     2.904730457905   108.62935668    46.48762478
 H     50  39  22     2.065213384526   111.59652479   292.09459373
 H     50  39  22     2.064855528699   112.21970636    53.38238989
 H     50  39  22     2.067861985813   108.99762499   172.94515698
 H     11   5   3     2.277630399106   117.09607396    86.75687361

---------------------
BASIS SET INFORMATION
---------------------
There are 4 groups of distinct atoms

 Group   1 Type H   : 4s1p contracted to 2s1p pattern {31/1}
 Group   2 Type C   : 10s4p1d contracted to 3s2p1d pattern {631/31/1}
 Group   3 Type B   : 10s4p1d contracted to 3s2p1d pattern {631/31/1}
 Group   4 Type N   : 10s4p1d contracted to 3s2p1d pattern {631/31/1}

Atom   0H    basis set group =>   1
Atom   1C    basis set group =>   2
Atom   2C    basis set group =>   2
Atom   3C    basis set group =>   2
Atom   4C    basis set group =>   2
Atom   5H    basis set group =>   1
Atom   6C    basis set group =>   2
Atom   7H    basis set group =>   1
Atom   8C    basis set group =>   2
Atom   9H    basis set group =>   1
Atom  10B    basis set group =>   3
Atom  11H    basis set group =>   1
Atom  12H    basis set group =>   1
Atom  13C    basis set group =>   2
Atom  14C    basis set group =>   2
Atom  15H    basis set group =>   1
Atom  16H    basis set group =>   1
Atom  17H    basis set group =>   1
Atom  18H    basis set group =>   1
Atom  19H    basis set group =>   1
Atom  20H    basis set group =>   1
Atom  21N    basis set group =>   4
Atom  22C    basis set group =>   2
Atom  23H    basis set group =>   1
Atom  24H    basis set group =>   1
Atom  25H    basis set group =>   1
Atom  26C    basis set group =>   2
Atom  27C    basis set group =>   2
Atom  28H    basis set group =>   1
Atom  29C    basis set group =>   2
Atom  30H    basis set group =>   1
Atom  31H    basis set group =>   1
Atom  32N    basis set group =>   4
Atom  33C    basis set group =>   2
Atom  34H    basis set group =>   1
Atom  35H    basis set group =>   1
Atom  36H    basis set group =>   1
Atom  37C    basis set group =>   2
Atom  38C    basis set group =>   2
Atom  39C    basis set group =>   2
Atom  40C    basis set group =>   2
Atom  41C    basis set group =>   2
Atom  42H    basis set group =>   1
Atom  43H    basis set group =>   1
Atom  44H    basis set group =>   1
Atom  45C    basis set group =>   2
Atom  46H    basis set group =>   1
Atom  47H    basis set group =>   1
Atom  48H    basis set group =>   1
Atom  49C    basis set group =>   2
Atom  50H    basis set group =>   1
Atom  51H    basis set group =>   1
Atom  52H    basis set group =>   1
Atom  53H    basis set group =>   1
---------------------------------
AUXILIARY/J BASIS SET INFORMATION
---------------------------------
There are 4 groups of distinct atoms

 Group   1 Type H   : 5s2p1d contracted to 3s1p1d pattern {311/2/1}
 Group   2 Type C   : 12s5p4d2f1g contracted to 6s4p3d1f1g pattern {711111/2111/211/2/1}
 Group   3 Type B   : 12s5p4d2f1g contracted to 6s4p3d1f1g pattern {711111/2111/211/2/1}
 Group   4 Type N   : 12s5p4d2f1g contracted to 6s4p3d1f1g pattern {711111/2111/211/2/1}

Atom   0H    basis set group =>   1
Atom   1C    basis set group =>   2
Atom   2C    basis set group =>   2
Atom   3C    basis set group =>   2
Atom   4C    basis set group =>   2
Atom   5H    basis set group =>   1
Atom   6C    basis set group =>   2
Atom   7H    basis set group =>   1
Atom   8C    basis set group =>   2
Atom   9H    basis set group =>   1
Atom  10B    basis set group =>   3
Atom  11H    basis set group =>   1
Atom  12H    basis set group =>   1
Atom  13C    basis set group =>   2
Atom  14C    basis set group =>   2
Atom  15H    basis set group =>   1
Atom  16H    basis set group =>   1
Atom  17H    basis set group =>   1
Atom  18H    basis set group =>   1
Atom  19H    basis set group =>   1
Atom  20H    basis set group =>   1
Atom  21N    basis set group =>   4
Atom  22C    basis set group =>   2
Atom  23H    basis set group =>   1
Atom  24H    basis set group =>   1
Atom  25H    basis set group =>   1
Atom  26C    basis set group =>   2
Atom  27C    basis set group =>   2
Atom  28H    basis set group =>   1
Atom  29C    basis set group =>   2
Atom  30H    basis set group =>   1
Atom  31H    basis set group =>   1
Atom  32N    basis set group =>   4
Atom  33C    basis set group =>   2
Atom  34H    basis set group =>   1
Atom  35H    basis set group =>   1
Atom  36H    basis set group =>   1
Atom  37C    basis set group =>   2
Atom  38C    basis set group =>   2
Atom  39C    basis set group =>   2
Atom  40C    basis set group =>   2
Atom  41C    basis set group =>   2
Atom  42H    basis set group =>   1
Atom  43H    basis set group =>   1
Atom  44H    basis set group =>   1
Atom  45C    basis set group =>   2
Atom  46H    basis set group =>   1
Atom  47H    basis set group =>   1
Atom  48H    basis set group =>   1
Atom  49C    basis set group =>   2
Atom  50H    basis set group =>   1
Atom  51H    basis set group =>   1
Atom  52H    basis set group =>   1
Atom  53H    basis set group =>   1


           ************************************************************
           *        Program running with 24 parallel MPI-processes    *
           *              working on a common directory               *
           ************************************************************
------------------------------------------------------------------------------
                             ORCA STARTUP CALCULATIONS
                           -- RI-GTO INTEGRALS CHOSEN --
------------------------------------------------------------------------------
------------------------------------------------------------------------------
                   ___                                                        
                  /   \      - P O W E R E D   B Y -                         
                 /     \                                                     
                 |  |  |   _    _      __       _____    __    __             
                 |  |  |  | |  | |    /  \     |  _  \  |  |  /  |          
                  \  \/   | |  | |   /    \    | | | |  |  | /  /          
                 / \  \   | |__| |  /  /\  \   | |_| |  |  |/  /          
                |  |  |   |  __  | /  /__\  \  |    /   |      \           
                |  |  |   | |  | | |   __   |  |    \   |  |\   \          
                \     /   | |  | | |  |  |  |  | |\  \  |  | \   \       
                 \___/    |_|  |_| |__|  |__|  |_| \__\ |__|  \__/        
                                                                              
                      - O R C A' S   B I G   F R I E N D -                    
                                      &                                       
                       - I N T E G R A L  F E E D E R -                       
                                                                              
 v1 FN, 2020, v2 2021, v3 2022-2024                                           
------------------------------------------------------------------------------


----------------------
SHARK INTEGRAL PACKAGE
----------------------

Number of atoms                             ...     54
Number of basis functions                   ...    477
Number of shells                            ...    231
Maximum angular momentum                    ...      2
Integral batch strategy                     ... SHARK/LIBINT Hybrid
RI-J (if used) integral strategy            ... SPLIT-RIJ (Revised 2003 algorithm where possible)
Printlevel                                  ...      1
Contraction scheme used                     ... SEGMENTED contraction
Prescreening option                         ... SCHWARTZ
   Thresh                                   ... 2.500e-11
   Tcut                                     ... 2.500e-12
   Tpresel                                  ... 2.500e-12 
Coulomb Range Separation                    ... NOT USED
Exchange Range Separation                   ... Long Range
   Mu parameter                             ... 2.500e-01
   Scaling (regular/separated)              ... 1.957e-01 8.043e-01
Multipole approximations                    ... NOT USED
Finite Nucleus Model                        ... NOT USED
CABS basis                                  ... NOT available
Auxiliary Coulomb fitting basis             ... AVAILABLE
   # of basis functions in Aux-J            ...   1468
   # of shells in Aux-J                     ...    500
   Maximum angular momentum in Aux-J        ...      4
Auxiliary J/K fitting basis                 ... NOT available
Auxiliary Correlation fitting basis         ... NOT available
Auxiliary 'external' fitting basis          ... NOT available

Checking pre-screening integrals            ... done (  0.0 sec) Dimension = 231
Check shell pair data                       ... done (  0.0 sec)
Shell pair information
Shell pair cut-off parameter TPreSel        ...   2.5e-12
Total number of shell pairs                 ...     26796
Shell pairs after pre-screening             ...     19608
Total number of primitive shell pairs       ...    125826
Primitive shell pairs kept                  ...     53357
          la=0 lb=0:   6501 shell pairs
          la=1 lb=0:   7416 shell pairs
          la=1 lb=1:   2189 shell pairs
          la=2 lb=0:   2119 shell pairs
          la=2 lb=1:   1207 shell pairs
          la=2 lb=2:    176 shell pairs

Calculating one electron integrals          ... done (  0.1 sec)
Calculating RI/J V-Matrix + Cholesky decomp.... done (  0.3 sec)
Calculating Nuclear repulsion               ... done (  0.0 sec) ENN=   2064.990993807751 Eh

Diagonalization of the overlap matrix:
Smallest eigenvalue                        ... 4.138e-04
Time for diagonalization                   ...    0.062 sec
Threshold for overlap eigenvalues          ... 1.000e-07
Number of eigenvalues below threshold      ... 0
Time for construction of square roots      ...    0.031 sec
Total time needed                          ...    0.175 sec

-------------------
DFT GRID GENERATION
-------------------

General Integration Accuracy     IntAcc      ... 4.388
Radial Grid Type                 RadialGrid  ... OptM3 with GC (2021)
Angular Grid (max. ang.)         AngularGrid ... 4 (Lebedev-302)
Angular grid pruning method      GridPruning ... 4 (adaptive)
Weight generation scheme         WeightScheme... mBecke (2022)
Basis function cutoff            BFCut       ... 1.0000e-11
Integration weight cutoff        WCut        ... 1.0000e-14
Partially contracted basis set               ... off
Rotationally invariant grid construction     ... off
Angular grids for H and He will be reduced by one unit

Total number of grid points                  ...   232965
Total number of batches                      ...     3664
Average number of points per batch           ...       63
Average number of grid points per atom       ...     4314

--------------------
COSX GRID GENERATION
--------------------

GRIDX 1
-------
General Integration Accuracy     IntAcc      ... 3.816
Radial Grid Type                 RadialGrid  ... OptM3 with GC (2021)
Angular Grid (max. ang.)         AngularGrid ... 1 (Lebedev-50)
Angular grid pruning method      GridPruning ... 4 (adaptive)
Weight generation scheme         WeightScheme... mBecke (2022)
Basis function cutoff            BFCut       ... 1.0000e-11
Integration weight cutoff        WCut        ... 1.0000e-14
Partially contracted basis set               ... on
Rotationally invariant grid construction     ... off
Angular grids for H and He will be reduced by one unit

Total number of grid points                  ...    29589
Total number of batches                      ...      257
Average number of points per batch           ...      115
Average number of grid points per atom       ...      548
UseSFitting                                  ... on

GRIDX 2
-------
General Integration Accuracy     IntAcc      ... 4.020
Radial Grid Type                 RadialGrid  ... OptM3 with GC (2021)
Angular Grid (max. ang.)         AngularGrid ... 2 (Lebedev-110)
Angular grid pruning method      GridPruning ... 4 (adaptive)
Weight generation scheme         WeightScheme... mBecke (2022)
Basis function cutoff            BFCut       ... 1.0000e-11
Integration weight cutoff        WCut        ... 1.0000e-14
Partially contracted basis set               ... on
Rotationally invariant grid construction     ... off
Angular grids for H and He will be reduced by one unit

Total number of grid points                  ...    61644
Total number of batches                      ...      512
Average number of points per batch           ...      120
Average number of grid points per atom       ...     1142
UseSFitting                                  ... on

GRIDX 3
-------
General Integration Accuracy     IntAcc      ... 4.338
Radial Grid Type                 RadialGrid  ... OptM3 with GC (2021)
Angular Grid (max. ang.)         AngularGrid ... 3 (Lebedev-194)
Angular grid pruning method      GridPruning ... 4 (adaptive)
Weight generation scheme         WeightScheme... mBecke (2022)
Basis function cutoff            BFCut       ... 1.0000e-11
Integration weight cutoff        WCut        ... 1.0000e-14
Partially contracted basis set               ... on
Rotationally invariant grid construction     ... off
Angular grids for H and He will be reduced by one unit

Total number of grid points                  ...   133555
Total number of batches                      ...     1073
Average number of points per batch           ...      124
Average number of grid points per atom       ...     2473
UseSFitting                                  ... on
Initializing property integral containers    ... done (  0.0 sec)

SHARK setup successfully completed in   6.3 seconds

Maximum memory used throughout the entire STARTUP-calculation: 68.1 MB


           ************************************************************
           *        Program running with 24 parallel MPI-processes    *
           *              working on a common directory               *
           ************************************************************
-------------------------------------------------------------------------------
                                 ORCA GUESS
                   Start orbitals & Density for SCF / CASSCF
-------------------------------------------------------------------------------

------------
SCF SETTINGS
------------
Hamiltonian:
 Density Functional     Method          .... DFT(GTOs)
 Exchange Functional    Exchange        .... WB97X-D3
 Correlation Functional Correlation     .... WB97X-D3
 Gradients option       PostSCFGGA      .... off
 Hybrid DFT is turned on
   Fraction HF Exchange ScalHFX         ....  0.195728
   Scaling of DF-GGA-X  ScalDFX         ....  0.000000
   Scaling of DF-GGA-C  ScalDFC         ....  1.000000
   Scaling of DF-LDA-C  ScalLDAC        ....  1.000000
   Perturbative correction              ....  0.000000
 Long-range corrected/Screened/Range-Separated Hybrid DFT is turned on
   Amount of maximum screened exact exchange              ....  0.804272
   Range separation parameter mu (erf(mu*r12)/r12)        ....  0.250000
 RI-approximation to the Coulomb term is turned on
   Number of AuxJ basis functions       .... 1468
   RIJ-COSX (HFX calculated with COS-X)).... on


General Settings:
 Integral files         IntName         .... input
 Hartree-Fock type      HFTyp           .... RHF
 Total Charge           Charge          ....    0
 Multiplicity           Mult            ....    1
 Number of Electrons    NEL             ....  170
 Basis Dimension        Dim             ....  477
 Nuclear Repulsion      ENuc            ....   2064.9909938078 Eh

Convergence Acceleration:
 AO-DIIS                CNVDIIS         .... on
   Start iteration      DIISMaxIt       ....    12
   Startup error        DIISStart       ....  0.200000
   # of expansion vecs  DIISMaxEq       ....     5
   Bias factor          DIISBfac        ....   1.050
   Max. coefficient     DIISMaxC        ....  10.000
 MO-DIIS                CNVKDIIS        .... off
 Trust-Rad. Augm. Hess. CNVTRAH         .... auto
   Auto Start mean grad. ratio tolernc. ....  1.125000
   Auto Start start iteration           ....    50
   Auto Start num. interpolation iter.  ....    10
   Max. Number of Micro iterations      ....    24
   Max. Number of Macro iterations      .... Maxiter - #DIIS iter
   Number of Davidson start vectors     ....     2
   Converg. threshold    (grad. norm)   ....   1.000e-05
   Grad. Scal. Fac. for Micro threshold ....   0.100
   Minimum threshold for Micro iter.    ....   1.000e-02
   NR start threshold (gradient norm)   ....   1.000e-04
   Initial trust radius                 ....   0.400
   Minimum AH scaling param. (alpha)    ....   1.000
   Maximum AH scaling param. (alpha)    .... 1000.000
   Quad. conv. algorithm                .... NR
   White noise on init. David. guess    .... on
   Maximum white noise                  ....   0.010
   Pseudo random numbers                .... off
   Inactive MOs                         .... canonical
   Orbital update algorithm             .... Taylor
   Preconditioner                       .... Diag
   Full preconditioner red. dimension   ....   250
 SOSCF                  CNVSOSCF        .... on
   Start iteration      SOSCFMaxIt      ....   150
   Startup grad/error   SOSCFStart      ....  0.003300
   Hessian update       SOSCFHessUp     .... L-BFGS
 Level Shifting         CNVShift        .... on
   Level shift para.    LevelShift      ....    0.2500
   Turn off err/grad.   ShiftErr        ....    0.0010
 Zerner damping         CNVZerner       .... off
 Static damping         CNVDamp         .... on
   Fraction old density DampFac         ....    0.7000
   Max. Damping (<1)    DampMax         ....    0.9800
   Min. Damping (>=0)   DampMin         ....    0.0000
   Turn off err/grad.   DampErr         ....    0.1000

SCF Procedure:
 Maximum # iterations   MaxIter         ....   125
 SCF integral mode      SCFMode         .... Direct
   Integral package                     .... SHARK and LIBINT hybrid scheme
 Reset frequency        DirectResetFreq ....    20
 Integral Threshold     Thresh          ....  2.500e-11 Eh
 Primitive CutOff       TCut            ....  2.500e-12 Eh

Convergence Tolerance:
 Convergence Check Mode ConvCheckMode   .... Total+1el-Energy
 Convergence forced     ConvForced      .... 0
 Energy Change          TolE            ....  1.000e-08 Eh
 1-El. energy change                    ....  1.000e-05 Eh
 Orbital Gradient       TolG            ....  1.000e-05
 Orbital Rotation angle TolX            ....  1.000e-05
 DIIS Error             TolErr          ....  5.000e-07

------------------------------
INITIAL GUESS: MODEL POTENTIAL
------------------------------
Loading Hartree-Fock densities                     ... done
Calculating cut-offs                               ... done
Initializing the effective Hamiltonian             ... done
Setting up the integral package (SHARK)            ... done
Starting the Coulomb interaction                   ... done (   0.3 sec)
Making the grid                                    ... done (   0.6 sec)
Mapping shells                                     ... done
Starting the XC term evaluation                    ... done (   0.1 sec)
  promolecular density results
     # of electrons  =    169.977195214
     EX              =   -128.414712503
     EC              =     -5.675606286
     EX+EC           =   -134.090318789
Transforming the Hamiltonian                       ... done (   0.0 sec)
Diagonalizing the Hamiltonian                      ... done (   0.1 sec)
Back transforming the eigenvectors                 ... done (   0.0 sec)
Now organizing SCF variables                       ... done
                      ------------------
                      INITIAL GUESS DONE (   1.2 sec)
                      ------------------
             **** ENERGY FILE WAS UPDATED (input.en.tmp) ****
Finished Guess after   1.6 sec
Maximum memory used throughout the entire GUESS-calculation: 42.6 MB


           ************************************************************
           *        Program running with 24 parallel MPI-processes    *
           *              working on a common directory               *
           ************************************************************

-------------------------------------------------------------------------------------------
                                      ORCA LEAN-SCF
                              memory conserving SCF solver
-------------------------------------------------------------------------------------------

----------------------------------------D-I-I-S--------------------------------------------
Iteration    Energy (Eh)           Delta-E    RMSDP     MaxDP     DIISErr   Damp  Time(sec)
-------------------------------------------------------------------------------------------
               ***  Starting incremental Fock matrix formation  ***
    1    -914.3199768984991351     0.00e+00  1.31e-03  4.78e-02  1.60e-01  0.700   7.7
    2    -914.5421529665818525    -2.22e-01  1.03e-03  3.44e-02  9.66e-02  0.700   3.8
                               ***Turning on AO-DIIS***
    3    -914.6621907030121292    -1.20e-01  5.39e-04  1.72e-02  5.00e-02  0.700   3.9
    4    -914.7339063405643174    -7.17e-02  1.16e-03  3.45e-02  3.17e-02  0.000   3.5
    5    -914.8857629400454243    -1.52e-01  1.05e-04  4.36e-03  3.64e-03  0.000   3.6
                              *** Initializing SOSCF ***
---------------------------------------S-O-S-C-F--------------------------------------
Iteration    Energy (Eh)           Delta-E    RMSDP     MaxDP     MaxGrad    Time(sec)
--------------------------------------------------------------------------------------
    6    -914.8860874604970377    -3.25e-04  5.28e-05  2.04e-03  1.46e-03     3.5
               *** Restarting incremental Fock matrix formation ***
    7    -914.8862240643620680    -1.37e-04  3.61e-05  1.23e-03  1.03e-03     7.8
    8    -914.8862470635231148    -2.30e-05  3.52e-05  1.56e-03  3.83e-04     5.3
    9    -914.8862541075491208    -7.04e-06  1.11e-05  4.36e-04  1.44e-04     5.0
   10    -914.8862554317338436    -1.32e-06  2.83e-06  1.03e-04  2.75e-05     4.5
   11    -914.8862554948309480    -6.31e-08  1.19e-06  4.62e-05  2.10e-05     4.9
   12    -914.8862555424725542    -4.76e-08  3.47e-07  1.57e-05  4.75e-06     3.3
   13    -914.8862555323889865     1.01e-08  1.61e-07  9.58e-06  3.67e-06     2.7
   14    -914.8862555177715876     1.46e-08  5.78e-08  3.13e-06  7.93e-07     2.6
                  *** Gradient check signals convergence ***

               *****************************************************
               *                     SUCCESS                       *
               *           SCF CONVERGED AFTER  14 CYCLES          *
               *****************************************************

Recomputing exchange energy using gridx3       ... done (   12.442 sec)
Old exchange energy                            :    -43.979774891 Eh
New exchange energy                            :    -43.979830967 Eh
Exchange energy change after final integration :     -0.000056075 Eh
Total energy after final integration           :   -914.886311593 Eh
             **** ENERGY FILE WAS UPDATED (input.en.tmp) ****

----------------
TOTAL SCF ENERGY
----------------

Total Energy       :       -914.88631159298666 Eh          -24895.32219 eV

Components:
Nuclear Repulsion  :       2064.99099380775078 Eh           56191.26165 eV
Electronic Energy  :      -2979.87724932552237 Eh          -81086.58232 eV
One Electron Energy:      -5341.64996199172037 Eh         -145353.68510 eV
Two Electron Energy:       2361.77271266619800 Eh           64267.10279 eV

Virial components:
Potential Energy   :      -1823.29611944375938 Eh          -49614.40976 eV
Kinetic Energy     :        908.40980785077284 Eh           24719.08757 eV
Virial Ratio       :          2.00712949561557

DFT components:
N(Alpha)           :       84.999859912041 electrons
N(Beta)            :       84.999859912041 electrons
N(Total)           :      169.999719824081 electrons
E(XC)              :      -94.063712886277 Eh       

---------------
SCF CONVERGENCE
---------------

  Last Energy change         ...   -1.4617e-08  Tolerance :   1.0000e-08
  Last MAX-Density change    ...    3.1335e-06  Tolerance :   1.0000e-07
  Last RMS-Density change    ...    5.7817e-08  Tolerance :   5.0000e-09
  Last DIIS Error            ...    1.4605e-03  Tolerance :   5.0000e-07
  Last Orbital Gradient      ...    7.9308e-07  Tolerance :   1.0000e-05
  Last Orbital Rotation      ...    1.7753e-06  Tolerance :   1.0000e-05


----------------
ORBITAL ENERGIES
----------------

  NO   OCC          E(Eh)            E(eV) 
   0   2.0000     -14.472812      -393.8252 
   1   2.0000     -14.430511      -392.6742 
   2   2.0000     -10.325626      -280.9746 
   3   2.0000     -10.324756      -280.9509 
   4   2.0000     -10.319670      -280.8125 
   5   2.0000     -10.310796      -280.5710 
   6   2.0000     -10.295393      -280.1519 
   7   2.0000     -10.280669      -279.7512 
   8   2.0000     -10.279225      -279.7119 
   9   2.0000     -10.279162      -279.7102 
  10   2.0000     -10.279024      -279.7065 
  11   2.0000     -10.277512      -279.6653 
  12   2.0000     -10.276937      -279.6497 
  13   2.0000     -10.276552      -279.6392 
  14   2.0000     -10.268605      -279.4229 
  15   2.0000     -10.268088      -279.4089 
  16   2.0000     -10.266538      -279.3667 
  17   2.0000     -10.265602      -279.3412 
  18   2.0000     -10.265424      -279.3364 
  19   2.0000     -10.262228      -279.2494 
  20   2.0000     -10.255512      -279.0667 
  21   2.0000     -10.254009      -279.0258 
  22   2.0000      -6.830706      -185.8730 
  23   2.0000      -1.087901       -29.6033 
  24   2.0000      -1.048467       -28.5302 
  25   2.0000      -0.959276       -26.1032 
  26   2.0000      -0.924038       -25.1444 
  27   2.0000      -0.914057       -24.8728 
  28   2.0000      -0.905361       -24.6361 
  29   2.0000      -0.856451       -23.3052 
  30   2.0000      -0.851895       -23.1812 
  31   2.0000      -0.826850       -22.4997 
  32   2.0000      -0.817631       -22.2489 
  33   2.0000      -0.800099       -21.7718 
  34   2.0000      -0.791415       -21.5355 
  35   2.0000      -0.790188       -21.5021 
  36   2.0000      -0.784826       -21.3562 
  37   2.0000      -0.725616       -19.7450 
  38   2.0000      -0.708798       -19.2874 
  39   2.0000      -0.689684       -18.7672 
  40   2.0000      -0.681722       -18.5506 
  41   2.0000      -0.666556       -18.1379 
  42   2.0000      -0.657573       -17.8935 
  43   2.0000      -0.632947       -17.2234 
  44   2.0000      -0.621046       -16.8995 
  45   2.0000      -0.604515       -16.4497 
  46   2.0000      -0.591384       -16.0924 
  47   2.0000      -0.572762       -15.5856 
  48   2.0000      -0.570879       -15.5344 
  49   2.0000      -0.562880       -15.3167 
  50   2.0000      -0.555886       -15.1264 
  51   2.0000      -0.548497       -14.9254 
  52   2.0000      -0.534607       -14.5474 
  53   2.0000      -0.527662       -14.3584 
  54   2.0000      -0.524146       -14.2627 
  55   2.0000      -0.516295       -14.0491 
  56   2.0000      -0.514387       -13.9972 
  57   2.0000      -0.506863       -13.7924 
  58   2.0000      -0.501813       -13.6550 
  59   2.0000      -0.498001       -13.5513 
  60   2.0000      -0.490750       -13.3540 
  61   2.0000      -0.485120       -13.2008 
  62   2.0000      -0.480916       -13.0864 
  63   2.0000      -0.471658       -12.8345 
  64   2.0000      -0.468582       -12.7508 
  65   2.0000      -0.466352       -12.6901 
  66   2.0000      -0.461152       -12.5486 
  67   2.0000      -0.455646       -12.3987 
  68   2.0000      -0.452843       -12.3225 
  69   2.0000      -0.450230       -12.2514 
  70   2.0000      -0.448624       -12.2077 
  71   2.0000      -0.442954       -12.0534 
  72   2.0000      -0.433553       -11.7976 
  73   2.0000      -0.432734       -11.7753 
  74   2.0000      -0.416789       -11.3414 
  75   2.0000      -0.411343       -11.1932 
  76   2.0000      -0.405850       -11.0438 
  77   2.0000      -0.397822       -10.8253 
  78   2.0000      -0.392150       -10.6710 
  79   2.0000      -0.381565       -10.3829 
  80   2.0000      -0.322384        -8.7725 
  81   2.0000      -0.312863        -8.5134 
  82   2.0000      -0.308597        -8.3974 
  83   2.0000      -0.304961        -8.2984 
  84   2.0000      -0.277144        -7.5415 
  85   0.0000       0.072364         1.9691 
  86   0.0000       0.081904         2.2287 
  87   0.0000       0.086140         2.3440 
  88   0.0000       0.157065         4.2740 
  89   0.0000       0.165407         4.5010 
  90   0.0000       0.171896         4.6775 
  91   0.0000       0.184140         5.0107 
  92   0.0000       0.191867         5.2210 
  93   0.0000       0.193679         5.2703 
  94   0.0000       0.198035         5.3888 
  95   0.0000       0.212443         5.7809 
*Only the first 10 virtual orbitals were printed.

                    ********************************
                    * MULLIKEN POPULATION ANALYSIS *
                    ********************************

-----------------------
MULLIKEN ATOMIC CHARGES
-----------------------
   0 H :    0.117289
   1 C :   -0.106044
   2 C :   -0.175953
   3 C :   -0.144954
   4 C :    0.044256
   5 H :    0.119548
   6 C :   -0.106395
   7 H :    0.117283
   8 C :    0.158104
   9 H :    0.109771
  10 B :   -0.041288
  11 H :    0.081269
  12 H :    0.013009
  13 C :    0.210832
  14 C :   -0.181835
  15 H :    0.107777
  16 H :    0.106210
  17 H :    0.108306
  18 H :    0.108885
  19 H :    0.117591
  20 H :    0.104537
  21 N :   -0.556300
  22 C :   -0.335379
  23 H :    0.110470
  24 H :    0.121976
  25 H :    0.132551
  26 C :   -0.330922
  27 C :   -0.192468
  28 H :    0.113238
  29 C :    0.051261
  30 H :    0.110959
  31 H :    0.124777
  32 N :   -0.444359
  33 C :   -0.201665
  34 H :    0.152072
  35 H :    0.139373
  36 H :    0.132523
  37 C :    0.148386
  38 C :    0.147462
  39 C :   -0.193458
  40 C :   -0.194041
  41 C :   -0.228104
  42 H :    0.119531
  43 H :    0.105154
  44 H :    0.111624
  45 C :   -0.331353
  46 H :    0.112411
  47 H :    0.104445
  48 H :    0.119012
  49 C :   -0.336644
  50 H :    0.126733
  51 H :    0.128660
  52 H :    0.111081
  53 H :   -0.047203
Sum of atomic charges:   -0.0000000

--------------------------------
MULLIKEN REDUCED ORBITAL CHARGES
--------------------------------
  0 H s       :     0.870491  s :     0.870491
      pz      :     0.005036  p :     0.012220
      px      :     0.005326
      py      :     0.001858

  1 C s       :     3.157415  s :     3.157415
      pz      :     0.986104  p :     2.913251
      px      :     0.988807
      py      :     0.938340
      dz2     :     0.004348  d :     0.035378
      dxz     :     0.005816
      dyz     :     0.008136
      dx2y2   :     0.008788
      dxy     :     0.008289

  2 C s       :     3.180570  s :     3.180570
      pz      :     0.991670  p :     2.959267
      px      :     0.964110
      py      :     1.003487
      dz2     :     0.005351  d :     0.036116
      dxz     :     0.005025
      dyz     :     0.008757
      dx2y2   :     0.008616
      dxy     :     0.008367

  3 C s       :     3.167339  s :     3.167339
      pz      :     0.971607  p :     2.942306
      px      :     0.983497
      py      :     0.987202
      dz2     :     0.007116  d :     0.035309
      dxz     :     0.004977
      dyz     :     0.007063
      dx2y2   :     0.007381
      dxy     :     0.008773

  4 C s       :     3.191424  s :     3.191424
      pz      :     0.907286  p :     2.732629
      px      :     0.905924
      py      :     0.919418
      dz2     :     0.005928  d :     0.031691
      dxz     :     0.005064
      dyz     :     0.006631
      dx2y2   :     0.007325
      dxy     :     0.006744

  5 H s       :     0.868180  s :     0.868180
      pz      :     0.003296  p :     0.012271
      px      :     0.002553
      py      :     0.006423

  6 C s       :     3.159557  s :     3.159557
      pz      :     0.977388  p :     2.912422
      px      :     0.967716
      py      :     0.967319
      dz2     :     0.005662  d :     0.034417
      dxz     :     0.004838
      dyz     :     0.008140
      dx2y2   :     0.008358
      dxy     :     0.007418

  7 H s       :     0.870456  s :     0.870456
      pz      :     0.002565  p :     0.012261
      px      :     0.003587
      py      :     0.006109

  8 C s       :     3.109363  s :     3.109363
      pz      :     0.885632  p :     2.675627
      px      :     0.875749
      py      :     0.914246
      dz2     :     0.008137  d :     0.056907
      dxz     :     0.009805
      dyz     :     0.013439
      dx2y2   :     0.011289
      dxy     :     0.014236

  9 H s       :     0.877421  s :     0.877421
      pz      :     0.003805  p :     0.012809
      px      :     0.002737
      py      :     0.006266

 10 B s       :     2.974774  s :     2.974774
      pz      :     0.519206  p :     2.013699
      px      :     0.685789
      py      :     0.808705
      dz2     :     0.005650  d :     0.052814
      dxz     :     0.013707
      dyz     :     0.008695
      dx2y2   :     0.010508
      dxy     :     0.014255

 11 H s       :     0.903859  s :     0.903859
      pz      :     0.001065  p :     0.014872
      px      :     0.000625
      py      :     0.013182

 12 H s       :     0.978114  s :     0.978114
      pz      :     0.000998  p :     0.008877
      px      :     0.001293
      py      :     0.006586

 13 C s       :     3.117586  s :     3.117586
      pz      :     1.030895  p :     2.624976
      px      :     0.911217
      py      :     0.682864
      dz2     :     0.004874  d :     0.046606
      dxz     :     0.006655
      dyz     :     0.008055
      dx2y2   :     0.015902
      dxy     :     0.011121

 14 C s       :     3.174256  s :     3.174256
      pz      :     1.010261  p :     2.971196
      px      :     0.980528
      py      :     0.980408
      dz2     :     0.005358  d :     0.036383
      dxz     :     0.005099
      dyz     :     0.005196
      dx2y2   :     0.010296
      dxy     :     0.010433

 15 H s       :     0.880818  s :     0.880818
      pz      :     0.002358  p :     0.011405
      px      :     0.005771
      py      :     0.003277

 16 H s       :     0.882350  s :     0.882350
      pz      :     0.002157  p :     0.011440
      px      :     0.002282
      py      :     0.007002

 17 H s       :     0.880286  s :     0.880286
      pz      :     0.006580  p :     0.011408
      px      :     0.002474
      py      :     0.002354

 18 H s       :     0.879670  s :     0.879670
      pz      :     0.002262  p :     0.011445
      px      :     0.002145
      py      :     0.007039

 19 H s       :     0.871053  s :     0.871053
      pz      :     0.003953  p :     0.011355
      px      :     0.004631
      py      :     0.002772

 20 H s       :     0.883896  s :     0.883896
      pz      :     0.002327  p :     0.011568
      px      :     0.002272
      py      :     0.006968

 21 N s       :     3.606509  s :     3.606509
      pz      :     1.102440  p :     3.913990
      px      :     1.137707
      py      :     1.673842
      dz2     :     0.008859  d :     0.035802
      dxz     :     0.011985
      dyz     :     0.004455
      dx2y2   :     0.004949
      dxy     :     0.005554

 22 C s       :     3.240326  s :     3.240326
      pz      :     0.972980  p :     3.064381
      px      :     1.043816
      py      :     1.047585
      dz2     :     0.007667  d :     0.030672
      dxz     :     0.007162
      dyz     :     0.004104
      dx2y2   :     0.008841
      dxy     :     0.002898

 23 H s       :     0.877981  s :     0.877981
      pz      :     0.002484  p :     0.011550
      px      :     0.006316
      py      :     0.002749

 24 H s       :     0.866176  s :     0.866176
      pz      :     0.002066  p :     0.011848
      px      :     0.002314
      py      :     0.007467

 25 H s       :     0.855657  s :     0.855657
      pz      :     0.004657  p :     0.011792
      px      :     0.004502
      py      :     0.002633

 26 C s       :     3.234602  s :     3.234602
      pz      :     1.053912  p :     3.065852
      px      :     1.055550
      py      :     0.956389
      dz2     :     0.004798  d :     0.030468
      dxz     :     0.006224
      dyz     :     0.007491
      dx2y2   :     0.007615
      dxy     :     0.004340

 27 C s       :     3.161925  s :     3.161925
      pz      :     1.072828  p :     2.995766
      px      :     0.993479
      py      :     0.929458
      dz2     :     0.003110  d :     0.034777
      dxz     :     0.005111
      dyz     :     0.007157
      dx2y2   :     0.008603
      dxy     :     0.010797

 28 H s       :     0.873878  s :     0.873878
      pz      :     0.002822  p :     0.012884
      px      :     0.003685
      py      :     0.006378

 29 C s       :     3.069692  s :     3.069692
      pz      :     1.013557  p :     2.827377
      px      :     0.885588
      py      :     0.928232
      dz2     :     0.007581  d :     0.051669
      dxz     :     0.009728
      dyz     :     0.005938
      dx2y2   :     0.013927
      dxy     :     0.014496

 30 H s       :     0.876185  s :     0.876185
      pz      :     0.003982  p :     0.012856
      px      :     0.006480
      py      :     0.002394

 31 H s       :     0.862575  s :     0.862575
      pz      :     0.003023  p :     0.012648
      px      :     0.001781
      py      :     0.007844

 32 N s       :     3.558457  s :     3.558457
      pz      :     1.454648  p :     3.838274
      px      :     1.195564
      py      :     1.188062
      dz2     :     0.005973  d :     0.047627
      dxz     :     0.006535
      dyz     :     0.009797
      dx2y2   :     0.011610
      dxy     :     0.013712

 33 C s       :     3.199768  s :     3.199768
      pz      :     1.065810  p :     2.957131
      px      :     0.853313
      py      :     1.038008
      dz2     :     0.011334  d :     0.044766
      dxz     :     0.010549
      dyz     :     0.003148
      dx2y2   :     0.012201
      dxy     :     0.007535

 34 H s       :     0.836810  s :     0.836810
      pz      :     0.007101  p :     0.011119
      px      :     0.001647
      py      :     0.002371

 35 H s       :     0.849523  s :     0.849523
      pz      :     0.003358  p :     0.011104
      px      :     0.004679
      py      :     0.003067

 36 H s       :     0.856239  s :     0.856239
      pz      :     0.002407  p :     0.011238
      px      :     0.001651
      py      :     0.007181

 37 C s       :     3.151034  s :     3.151034
      pz      :     0.929583  p :     2.638520
      px      :     0.808211
      py      :     0.900725
      dz2     :     0.011355  d :     0.062060
      dxz     :     0.011908
      dyz     :     0.009127
      dx2y2   :     0.016880
      dxy     :     0.012791

 38 C s       :     3.151570  s :     3.151570
      pz      :     0.785570  p :     2.639079
      px      :     0.925689
      py      :     0.927820
      dz2     :     0.015606  d :     0.061888
      dxz     :     0.012699
      dyz     :     0.012206
      dx2y2   :     0.009170
      dxy     :     0.012207

 39 C s       :     3.213658  s :     3.213658
      pz      :     0.928866  p :     2.942265
      px      :     0.981515
      py      :     1.031884
      dz2     :     0.010464  d :     0.037534
      dxz     :     0.008309
      dyz     :     0.004577
      dx2y2   :     0.008449
      dxy     :     0.005734

 40 C s       :     3.214200  s :     3.214200
      pz      :     0.999705  p :     2.942314
      px      :     0.928902
      py      :     1.013706
      dz2     :     0.009989  d :     0.037527
      dxz     :     0.008197
      dyz     :     0.002263
      dx2y2   :     0.010528
      dxy     :     0.006551

 41 C s       :     3.215987  s :     3.215987
      pz      :     0.966237  p :     2.973853
      px      :     0.983410
      py      :     1.024206
      dz2     :     0.008749  d :     0.038264
      dxz     :     0.009743
      dyz     :     0.004628
      dx2y2   :     0.009772
      dxy     :     0.005371

 42 H s       :     0.868592  s :     0.868592
      pz      :     0.004585  p :     0.011877
      px      :     0.004741
      py      :     0.002551

 43 H s       :     0.882820  s :     0.882820
      pz      :     0.006122  p :     0.012026
      px      :     0.002657
      py      :     0.003246

 44 H s       :     0.876805  s :     0.876805
      pz      :     0.002879  p :     0.011571
      px      :     0.006117
      py      :     0.002575

 45 C s       :     3.234818  s :     3.234818
      pz      :     1.045237  p :     3.066050
      px      :     1.046384
      py      :     0.974430
      dz2     :     0.007959  d :     0.030485
      dxz     :     0.005963
      dyz     :     0.002661
      dx2y2   :     0.004445
      dxy     :     0.009458

 46 H s       :     0.876017  s :     0.876017
      pz      :     0.006563  p :     0.011572
      px      :     0.002841
      py      :     0.002167

 47 H s       :     0.883533  s :     0.883533
      pz      :     0.002506  p :     0.012022
      px      :     0.004848
      py      :     0.004668

 48 H s       :     0.869098  s :     0.869098
      pz      :     0.004056  p :     0.011890
      px      :     0.005329
      py      :     0.002505

 49 C s       :     3.241411  s :     3.241411
      pz      :     1.048331  p :     3.064628
      px      :     0.999583
      py      :     1.016713
      dz2     :     0.008324  d :     0.030605
      dxz     :     0.005965
      dyz     :     0.002213
      dx2y2   :     0.007901
      dxy     :     0.006202

 50 H s       :     0.861475  s :     0.861475
      pz      :     0.003889  p :     0.011793
      px      :     0.005390
      py      :     0.002513

 51 H s       :     0.859302  s :     0.859302
      pz      :     0.002768  p :     0.012038
      px      :     0.002309
      py      :     0.006962

 52 H s       :     0.877363  s :     0.877363
      pz      :     0.006732  p :     0.011556
      px      :     0.002556
      py      :     0.002268

 53 H s       :     1.041204  s :     1.041204
      pz      :     0.002162  p :     0.005999
      px      :     0.002879
      py      :     0.000958



                     *******************************
                     * LOEWDIN POPULATION ANALYSIS *
                     *******************************

----------------------
LOEWDIN ATOMIC CHARGES
----------------------
   0 H :    0.078272
   1 C :   -0.081318
   2 C :   -0.065052
   3 C :   -0.086746
   4 C :   -0.034702
   5 H :    0.081380
   6 C :   -0.094217
   7 H :    0.077536
   8 C :    0.021592
   9 H :    0.076669
  10 B :   -0.179011
  11 H :    0.115503
  12 H :    0.047303
  13 C :   -0.059622
  14 C :   -0.104061
  15 H :    0.071242
  16 H :    0.068568
  17 H :    0.071521
  18 H :    0.069569
  19 H :    0.074168
  20 H :    0.065439
  21 N :   -0.135961
  22 C :   -0.200050
  23 H :    0.073578
  24 H :    0.077695
  25 H :    0.080873
  26 C :   -0.214505
  27 C :   -0.149428
  28 H :    0.076498
  29 C :   -0.063987
  30 H :    0.074732
  31 H :    0.073438
  32 N :    0.027592
  33 C :   -0.111654
  34 H :    0.084807
  35 H :    0.078924
  36 H :    0.082470
  37 C :    0.033738
  38 C :    0.033711
  39 C :   -0.124283
  40 C :   -0.124058
  41 C :   -0.135244
  42 H :    0.076124
  43 H :    0.066791
  44 H :    0.074052
  45 C :   -0.214791
  46 H :    0.074538
  47 H :    0.066424
  48 H :    0.075746
  49 C :   -0.201068
  50 H :    0.077917
  51 H :    0.080475
  52 H :    0.074247
  53 H :   -0.003375

-------------------------------
LOEWDIN REDUCED ORBITAL CHARGES
-------------------------------
  0 H s       :     0.881582  s :     0.881582
      pz      :     0.016510  p :     0.040146
      px      :     0.017585
      py      :     0.006052

  1 C s       :     2.892774  s :     2.892774
      pz      :     1.015277  p :     3.102804
      px      :     1.021415
      py      :     1.066113
      dz2     :     0.009930  d :     0.085740
      dxz     :     0.011126
      dyz     :     0.020562
      dx2y2   :     0.022887
      dxy     :     0.021236

  2 C s       :     2.888129  s :     2.888129
      pz      :     1.017766  p :     3.091153
      px      :     1.017727
      py      :     1.055660
      dz2     :     0.011847  d :     0.085770
      dxz     :     0.012584
      dyz     :     0.019706
      dx2y2   :     0.020538
      dxy     :     0.021094

  3 C s       :     2.891971  s :     2.891971
      pz      :     1.024207  p :     3.109264
      px      :     1.026597
      py      :     1.058460
      dz2     :     0.015686  d :     0.085511
      dxz     :     0.012970
      dyz     :     0.018016
      dx2y2   :     0.018286
      dxy     :     0.020553

  4 C s       :     2.886226  s :     2.886226
      pz      :     0.987193  p :     3.069241
      px      :     1.006276
      py      :     1.075772
      dz2     :     0.013103  d :     0.079234
      dxz     :     0.013360
      dyz     :     0.017134
      dx2y2   :     0.018445
      dxy     :     0.017192

  5 H s       :     0.878108  s :     0.878108
      pz      :     0.010848  p :     0.040512
      px      :     0.007990
      py      :     0.021674

  6 C s       :     2.897102  s :     2.897102
      pz      :     1.027435  p :     3.112801
      px      :     1.032671
      py      :     1.052696
      dz2     :     0.012733  d :     0.084314
      dxz     :     0.013073
      dyz     :     0.019129
      dx2y2   :     0.020023
      dxy     :     0.019355

  7 H s       :     0.882274  s :     0.882274
      pz      :     0.007953  p :     0.040190
      px      :     0.011546
      py      :     0.020691

  8 C s       :     2.852023  s :     2.852023
      pz      :     0.961617  p :     2.987461
      px      :     0.960519
      py      :     1.065325
      dz2     :     0.018606  d :     0.138924
      dxz     :     0.023875
      dyz     :     0.032640
      dx2y2   :     0.028829
      dxy     :     0.034974

  9 H s       :     0.881454  s :     0.881454
      pz      :     0.011835  p :     0.041877
      px      :     0.008378
      py      :     0.021663

 10 B s       :     2.786567  s :     2.786567
      pz      :     0.597521  p :     2.269277
      px      :     0.779839
      py      :     0.891917
      dz2     :     0.012506  d :     0.123167
      dxz     :     0.029513
      dyz     :     0.019815
      dx2y2   :     0.025602
      dxy     :     0.035731

 11 H s       :     0.841717  s :     0.841717
      pz      :     0.001866  p :     0.042780
      px      :     0.001688
      py      :     0.039226

 12 H s       :     0.930666  s :     0.930666
      pz      :     0.002673  p :     0.022031
      px      :     0.002285
      py      :     0.017073

 13 C s       :     2.869443  s :     2.869443
      pz      :     1.067506  p :     3.077186
      px      :     1.061289
      py      :     0.948391
      dz2     :     0.010590  d :     0.112992
      dxz     :     0.015072
      dyz     :     0.017196
      dx2y2   :     0.041572
      dxy     :     0.028563

 14 C s       :     2.894452  s :     2.894452
      pz      :     1.023466  p :     3.124502
      px      :     1.052591
      py      :     1.048445
      dz2     :     0.010392  d :     0.085108
      dxz     :     0.011913
      dyz     :     0.011098
      dx2y2   :     0.027278
      dxy     :     0.024426

 15 H s       :     0.889859  s :     0.889859
      pz      :     0.007847  p :     0.038898
      px      :     0.020439
      py      :     0.010613

 16 H s       :     0.892623  s :     0.892623
      pz      :     0.007017  p :     0.038809
      px      :     0.007297
      py      :     0.024495

 17 H s       :     0.889555  s :     0.889555
      pz      :     0.023385  p :     0.038924
      px      :     0.008248
      py      :     0.007291

 18 H s       :     0.891560  s :     0.891560
      pz      :     0.007031  p :     0.038871
      px      :     0.007134
      py      :     0.024705

 19 H s       :     0.887016  s :     0.887016
      pz      :     0.013733  p :     0.038815
      px      :     0.016222
      py      :     0.008861

[...]
freq.     544.55  E(vib)   ...       0.12 
freq.     571.67  E(vib)   ...       0.11 
freq.     580.80  E(vib)   ...       0.11 
freq.     597.22  E(vib)   ...       0.10 
freq.     612.57  E(vib)   ...       0.10 
freq.     627.51  E(vib)   ...       0.09 
freq.     646.61  E(vib)   ...       0.09 
freq.     664.44  E(vib)   ...       0.08 
freq.     684.51  E(vib)   ...       0.07 
freq.     693.75  E(vib)   ...       0.07 
freq.     746.73  E(vib)   ...       0.06 
freq.     748.81  E(vib)   ...       0.06 
freq.     775.34  E(vib)   ...       0.05 
freq.     784.17  E(vib)   ...       0.05 
freq.     796.65  E(vib)   ...       0.05 
freq.     823.28  E(vib)   ...       0.05 
freq.     828.34  E(vib)   ...       0.04 
freq.     835.78  E(vib)   ...       0.04 
freq.     848.45  E(vib)   ...       0.04 
freq.     878.92  E(vib)   ...       0.04 
freq.     898.49  E(vib)   ...       0.03 
freq.     902.36  E(vib)   ...       0.03 
freq.     914.53  E(vib)   ...       0.03 
freq.     917.16  E(vib)   ...       0.03 
freq.     935.85  E(vib)   ...       0.03 
freq.     940.82  E(vib)   ...       0.03 
freq.     943.67  E(vib)   ...       0.03 
freq.     957.07  E(vib)   ...       0.03 
freq.     977.70  E(vib)   ...       0.03 
freq.     990.15  E(vib)   ...       0.02 
freq.     999.40  E(vib)   ...       0.02 
freq.    1016.04  E(vib)   ...       0.02 
freq.    1020.16  E(vib)   ...       0.02 
freq.    1021.75  E(vib)   ...       0.02 
freq.    1023.62  E(vib)   ...       0.02 
freq.    1031.78  E(vib)   ...       0.02 
freq.    1075.86  E(vib)   ...       0.02 
freq.    1079.02  E(vib)   ...       0.02 
freq.    1081.72  E(vib)   ...       0.02 
freq.    1084.81  E(vib)   ...       0.02 
freq.    1090.61  E(vib)   ...       0.02 
freq.    1091.66  E(vib)   ...       0.02 
freq.    1098.42  E(vib)   ...       0.02 
freq.    1118.82  E(vib)   ...       0.01 
freq.    1124.41  E(vib)   ...       0.01 
freq.    1143.08  E(vib)   ...       0.01 
freq.    1154.29  E(vib)   ...       0.01 
freq.    1186.97  E(vib)   ...       0.01 
freq.    1192.10  E(vib)   ...       0.01 
freq.    1196.53  E(vib)   ...       0.01 
freq.    1228.02  E(vib)   ...       0.01 
freq.    1239.85  E(vib)   ...       0.01 
freq.    1250.54  E(vib)   ...       0.01 
freq.    1262.16  E(vib)   ...       0.01 
freq.    1269.30  E(vib)   ...       0.01 
freq.    1271.89  E(vib)   ...       0.01 
freq.    1281.79  E(vib)   ...       0.01 
freq.    1298.51  E(vib)   ...       0.01 
freq.    1304.95  E(vib)   ...       0.01 
freq.    1322.44  E(vib)   ...       0.01 
freq.    1330.71  E(vib)   ...       0.01 
freq.    1339.07  E(vib)   ...       0.01 
freq.    1380.53  E(vib)   ...       0.01 
freq.    1384.40  E(vib)   ...       0.00 
freq.    1407.34  E(vib)   ...       0.00 
freq.    1408.38  E(vib)   ...       0.00 
freq.    1414.75  E(vib)   ...       0.00 
freq.    1424.78  E(vib)   ...       0.00 
freq.    1435.02  E(vib)   ...       0.00 
freq.    1436.99  E(vib)   ...       0.00 
freq.    1443.30  E(vib)   ...       0.00 
freq.    1472.21  E(vib)   ...       0.00 
freq.    1486.81  E(vib)   ...       0.00 
freq.    1488.03  E(vib)   ...       0.00 
freq.    1489.10  E(vib)   ...       0.00 
freq.    1493.76  E(vib)   ...       0.00 
freq.    1495.13  E(vib)   ...       0.00 
freq.    1498.52  E(vib)   ...       0.00 
freq.    1502.52  E(vib)   ...       0.00 
freq.    1507.99  E(vib)   ...       0.00 
freq.    1512.33  E(vib)   ...       0.00 
freq.    1517.48  E(vib)   ...       0.00 
freq.    1519.53  E(vib)   ...       0.00 
freq.    1522.23  E(vib)   ...       0.00 
freq.    1523.84  E(vib)   ...       0.00 
freq.    1532.08  E(vib)   ...       0.00 
freq.    1534.98  E(vib)   ...       0.00 
freq.    1542.49  E(vib)   ...       0.00 
freq.    1553.45  E(vib)   ...       0.00 
freq.    1612.70  E(vib)   ...       0.00 
freq.    1658.10  E(vib)   ...       0.00 
freq.    1688.66  E(vib)   ...       0.00 
freq.    2575.63  E(vib)   ...       0.00 
freq.    3068.25  E(vib)   ...       0.00 
freq.    3069.82  E(vib)   ...       0.00 
freq.    3079.81  E(vib)   ...       0.00 
freq.    3080.30  E(vib)   ...       0.00 
freq.    3084.48  E(vib)   ...       0.00 
freq.    3086.02  E(vib)   ...       0.00 
freq.    3090.68  E(vib)   ...       0.00 
freq.    3094.42  E(vib)   ...       0.00 
freq.    3122.64  E(vib)   ...       0.00 
freq.    3124.19  E(vib)   ...       0.00 
freq.    3132.17  E(vib)   ...       0.00 
freq.    3157.17  E(vib)   ...       0.00 
freq.    3164.52  E(vib)   ...       0.00 
freq.    3166.65  E(vib)   ...       0.00 
freq.    3170.02  E(vib)   ...       0.00 
freq.    3172.55  E(vib)   ...       0.00 
freq.    3186.52  E(vib)   ...       0.00 
freq.    3186.82  E(vib)   ...       0.00 
freq.    3186.95  E(vib)   ...       0.00 
freq.    3194.66  E(vib)   ...       0.00 
freq.    3208.64  E(vib)   ...       0.00 
freq.    3210.47  E(vib)   ...       0.00 
freq.    3222.33  E(vib)   ...       0.00 
freq.    3238.63  E(vib)   ...       0.00 
freq.    3263.73  E(vib)   ...       0.00 
freq.    3279.60  E(vib)   ...       0.00 
freq.    3287.84  E(vib)   ...       0.00 
freq.    3306.73  E(vib)   ...       0.00 
freq.    3625.97  E(vib)   ...       0.00 

------------
INNER ENERGY
------------

The inner energy is: U= E(el) + E(ZPE) + E(vib) + E(rot) + E(trans)
    E(el)   - is the total energy from the electronic structure calculation
              = E(kin-el) + E(nuc-el) + E(el-el) + E(nuc-nuc)
    E(ZPE)  - the the zero temperature vibrational energy from the frequency calculation
    E(vib)  - the the finite temperature correction to E(ZPE) due to population
              of excited vibrational states
    E(rot)  - is the rotational thermal energy
    E(trans)- is the translational thermal energy

Summary of contributions to the inner energy U:
Electronic energy                ...   -914.92091465 Eh
Zero point energy                ...      0.47707544 Eh     299.37 kcal/mol
Thermal vibrational correction   ...      0.01905788 Eh      11.96 kcal/mol
Thermal rotational correction    ...      0.00141627 Eh       0.89 kcal/mol
Thermal translational correction ...      0.00141627 Eh       0.89 kcal/mol
-----------------------------------------------------------------------
Total thermal energy                   -914.42194879 Eh


Summary of corrections to the electronic energy:
(perhaps to be used in another calculation)
Total thermal correction                  0.02189042 Eh      13.74 kcal/mol
Non-thermal (ZPE) correction              0.47707544 Eh     299.37 kcal/mol
-----------------------------------------------------------------------
Total correction                          0.49896586 Eh     313.11 kcal/mol


--------
ENTHALPY
--------

The enthalpy is H = U + kB*T
                kB is Boltzmann's constant
Total thermal energy              ...   -914.42194879 Eh 
Thermal Enthalpy correction       ...      0.00094421 Eh       0.59 kcal/mol
-----------------------------------------------------------------------
Total Enthalpy                    ...   -914.42100458 Eh


Note: Only C1 symmetry has been detected, increase convergence thresholds 
      if your molecule has a higher symmetry. Symmetry factor of 1.0 is   
      used for the rotational entropy correction. 
 

Note: Rotational entropy computed according to Herzberg 
Infrared and Raman Spectra, Chapter V,1, Van Nostrand Reinhold, 1945 
Point Group:  C1, Symmetry Number:   1  
Rotational constants in cm-1:     0.012348     0.006549     0.005661 

Vibrational entropy computed according to the QRRHO of S. Grimme
Chem.Eur.J. 2012 18 9955 using a reference frequency of 100.0 cm-1


-------
ENTROPY
-------

The entropy contributions are T*S = T*(S(el)+S(vib)+S(rot)+S(trans))
     S(el)   - electronic entropy
     S(vib)  - vibrational entropy
     S(rot)  - rotational entropy
     S(trans)- translational entropy
The entropies will be listed as multiplied by the temperature to get
units of energy

Electronic entropy                ...      0.00000000 Eh      0.00 kcal/mol
Vibrational entropy               ...      0.03230143 Eh     20.27 kcal/mol
Rotational entropy                ...      0.01640176 Eh     10.29 kcal/mol
Translational entropy             ...      0.02047495 Eh     12.85 kcal/mol
-----------------------------------------------------------------------
Final entropy term                ...      0.06917814 Eh     43.41 kcal/mol

In case the symmetry of your molecule has not been determined correctly
or in case you have a reason to use a different symmetry number we print 
out the resulting rotational entropy values for sn=1,12:

 non-linear molecules -----------------------------------
|  sn= 1 | S(rot)=       0.01640176 Eh     10.29 kcal/mol|
|  sn= 2 | S(rot)=       0.01574731 Eh      9.88 kcal/mol|
|  sn= 3 | S(rot)=       0.01536447 Eh      9.64 kcal/mol|
|  sn= 4 | S(rot)=       0.01509285 Eh      9.47 kcal/mol|
|  sn= 5 | S(rot)=       0.01488216 Eh      9.34 kcal/mol|
|  sn= 6 | S(rot)=       0.01471002 Eh      9.23 kcal/mol|
|  sn= 7 | S(rot)=       0.01456447 Eh      9.14 kcal/mol|
|  sn= 8 | S(rot)=       0.01443839 Eh      9.06 kcal/mol|
|  sn= 9 | S(rot)=       0.01432719 Eh      8.99 kcal/mol|
|  sn=10 | S(rot)=       0.01422771 Eh      8.93 kcal/mol|
|  sn=11 | S(rot)=       0.01413772 Eh      8.87 kcal/mol|
|  sn=12 | S(rot)=       0.01405556 Eh      8.82 kcal/mol|
 linear molecules ---------------------------------------
|  Dinfh | S(rot)=       0.01021106 Eh      6.41 kcal/mol|
|  Cinfv | S(rot)=       0.01086552 Eh      6.82 kcal/mol|
 --------------------------------------------------------


-------------------
GIBBS FREE ENERGY
-------------------

The Gibbs free energy is G = H - T*S

Total enthalpy                    ...   -914.42100458 Eh 
Total entropy correction          ...     -0.06917814 Eh    -43.41 kcal/mol
-----------------------------------------------------------------------
Final Gibbs free energy         ...   -914.49018272 Eh

For completeness - the Gibbs free energy minus the electronic energy
G-E(el)                           ...      0.43073193 Eh    270.29 kcal/mol


Maximum memory used throughout the entire PROP-calculation: 388.1 MB



--------------------------------------------------------------------------------
                   Intrinsic Reaction Coordinate Calculation
--------------------------------------------------------------------------------

System:
Nr. of atoms                        .... 54
Algorithm: SD (steepest descent step) plus correction
Settings:
Max. no of cycles        MaxIter    .... 20
Direction                           .... Forward and backward
Initial displacement Hessian type   .... Read
Hessian Filename                    .... input.hess
Following Hessian mode              .... 0
Initial displacement type           .... Energy
  Initial displacement energy change.... 2.000 mEh
Coordinate system following type    .... Cartesian
Length of steepest descent step     .... 0.150 bohr
Do parabolic fit 
  if SD step is uphill              .... YES
Do Correction to SD step            .... YES
Scaling for length of correction
  compared to SD step               .... 0.333
Do parabolic fit to SD correction   .... YES
Only interpolate for parabolic fit  .... YES
Do update to length of
  SD step and correction            .... YES
Convergence Tolerances:
  Max. Gradient            TolMAXG  ....  2.0000e-03 Eh/bohr
  RMS Gradient             TolRMSG  ....  5.0000e-04 Eh/bohr
Storing full IRC trajectory in      .... input_IRC_Full_trj.xyz
Storing forward trajectory in       .... input_IRC_F_trj.xyz
Storing backward trajectory in      .... input_IRC_B_trj.xyz


 ...good, the file input.hess exists
Reading the hessian file           ...... done
Determining length of initial displacement:
  Requested energy change (quadratic behavior): 2.000 mEh
  Resulting scaling factor for initial displacement along normalized TS mode: 0.7968

         *************************************************************
         *                          FORWARD IRC                      *
         *************************************************************

Iteration    E(Eh)      dE(kcal/mol)  max(|G|)   RMS(G) 
Convergence thresholds                0.002000  0.000500            
    0      -914.919882    0.648019    0.010645  0.001679
    1      -914.921080   -0.103750    0.005598  0.001131
    2      -914.921196   -0.176832    0.003749  0.000781
    3      -914.921271   -0.223329    0.002342  0.000590
    4      -914.921332   -0.261919    0.002040  0.000466
    5      -914.921410   -0.310548    0.001815  0.000354

                      ***********************HURRAY********************
                      ***            THE IRC HAS CONVERGED          ***
                      *************************************************


         *************************************************************
         *                          BACKWARD IRC                     *
         *************************************************************

Iteration    E(Eh)      dE(kcal/mol)  max(|G|)   RMS(G) 
Convergence thresholds                0.002000  0.000500            
    0      -914.922331   -0.888660    0.010403  0.001205
    1      -914.922488   -0.987501    0.005466  0.000680
    2      -914.922567   -1.036887    0.002674  0.000446
    3      -914.922630   -1.076612    0.001958  0.000377

                      ***********************HURRAY********************
                      ***            THE IRC HAS CONVERGED          ***
                      *************************************************


---------------------------------------------------------------
                       IRC PATH SUMMARY              
---------------------------------------------------------------
All gradients are in Eh/Bohr.

Step        E(Eh)      dE(kcal/mol)  max(|G|)   RMS(G) 
   1      -914.922630   -1.076612    0.001958  0.000377
   2      -914.922567   -1.036887    0.002674  0.000446
   3      -914.922488   -0.987501    0.005466  0.000680
   4      -914.922331   -0.888660    0.010403  0.001205
   5      -914.920915    0.000000    0.001162  0.000332 <= TS
   6      -914.919882    0.648019    0.010645  0.001679
   7      -914.921080   -0.103750    0.005598  0.001131
   8      -914.921196   -0.176832    0.003749  0.000781
   9      -914.921271   -0.223329    0.002342  0.000590
  10      -914.921332   -0.261919    0.002040  0.000466
  11      -914.921410   -0.310548    0.001815  0.000354

--------------------------------
SUGGESTED CITATIONS FOR THIS RUN
--------------------------------

Below you find a list of papers that are relevant to this ORCA run
We neither can nor want to force you to cite these papers, but we appreciate if you do
You receive ORCA, which is the product of decades of hard work by many enthusiastic individuals, for free
The only thing we kindly ask in return is that you cite our papers,
We deeply appreciate it, if you show your appreciation for ORCA by not just citing the generic ORCA reference.

Please note that relegating all ORCA citations to the supporting information does *not* help us.
SI sections are not indexed - citations you put there will not count into any citation statistics
But we need these citations in order to attract the funding resources that allow us to do what we are doing

Therefore, if you are a happy ORCA user, please consider citing a few of the papers listed below in the main body of your paper

In addition to the list printed below, the program has created the file input.bibtex that contains the list in bibtex format
You can import this file easily into all common literature databanks and citation aid programs


List of essential papers. We consider these as the minimum necessary citations

  1. Neese,F.
     Software update: the ORCA program system, version 5.0
     WIRES Comput. Molec. Sci., 2022 12(1)e1606
     doi.org/10.1002/wcms.1606

List of papers to cite with high priority. The work reported in these papers was absolutely
necessary for this run to complete.
Our perspective: the developers of density functionals and basis sets usually get cited in chemistry papers
Good! But without the algorithms to do something with them, the functionals or basis sets would not do anything.
Hence, in our opinion, the algorithm design and method developments papers are equally worthy of getting cited

  1. Neese,F.
     An improvement of the resolution of the identity approximation for the formation of the Coulomb matrix
     J. Comp. Chem., 2003 24(14)1740-1747
     doi.org/10.1002/jcc.10318
  2. Neese,F.; Wennmohs,F.; Hansen,A.; Becker,U.
     Efficient, approximate and parallel Hartree-Fock and hybrid DFT calculations. A 'chain-of-spheres' algorithm for the Hartree-Fock exchange
     Chem. Phys., 2009 356(1-3)98-109
     doi.org/10.1016/j.chemphys.2008.10.036
  3. Bykov,D.; Petrenko,T.; Izsak,R.; Kossmann,S.; Becker,U.; Valeev,E.; Neese,F.
     Efficient implementation of the analytic second derivatives of Hartree-Fock and hybrid DFT energies: a detailed analysis of different approximations
     Molec. Phys., 2015 113 1961-1977
     doi.org/10.1080/00268976.2015.1025114
  4. Helmich-Paris,B.; de Souza,B.; Neese,F.; Izsák,R.
     An improved chain of spheres for exchange algorithm
     J. Chem. Phys., 2021 155 104109
     doi.org/doi: 10.1063/5.0058766.
  5. Neese,F.
     The SHARK Integral Generation and Digestion System
     J. Comp. Chem., 2022  1-16
     doi.org/10.1002/jcc.26942
  6. Grimme,S.; Antony,J.; Ehrlich,S.; Krieg,H.
     A consistent and accurate ab initio parametrization of density functional dispersion correction (DFT-D) for the 94 elements H-Pu
     J. Chem. Phys., 2010 132 154104
     doi.org/10.1063/1.3382344

List of suggested additional citations. These are papers that are important in the 'surrounding' of 
of this run, or papers that preceded the highly important papers. If you like your results we are grateful for a citation.

  1. Izsak,R.; Neese,F.
     An overlap fitted chain of spheres exchange method
     J. Chem. Phys., 2011 135 144105
     doi.org/10.1063/1.3646921
  2. Izsak,R.; Hansen,A.; Neese,F.
     The resolution of identity and chain of spheres approximations for the LPNO-CCSD singles Fock term
     Molec. Phys., 2012 110 2413-2417
     doi.org/10.1080/00268976.2012.687466
  3. Neese,F.
     The ORCA program system
     WIRES Comput. Molec. Sci., 2012 2(1)73-78
     doi.org/10.1002/wcms.81
  4. Izsak,R.; Neese,F.; Klopper,W.
     Robust fitting techniques in the chain of spheres approximation to the Fock exchange: The role of the complementary space
     J. Chem. Phys., 2013 139 
     doi.org/10.1063/1.4819264
  5. Neese,F.
     Software update: the ORCA program system, version 4.0
     WIRES Comput. Molec. Sci., 2018 8(1)1-6
     doi.org/10.1002/wcms.1327
  6. Neese,F.; Wennmohs,F.; Becker,U.; Riplinger,C.
     The ORCA quantum chemistry program package
     J. Chem. Phys., 2020 152 Art. No. L224108
     doi.org/10.1063/5.0004608

List of optional additional citations

  1. Neese,F.
     Approximate second-order SCF convergence for spin unrestricted wavefunctions
     Chem. Phys. Lett., 2000 325(1-3)93-98
     doi.org/10.1016/s0009-2614(00)00662-x

Timings for individual modules:

Sum of individual times          ...     4053.960 sec (=  67.566 min)
Startup calculation              ...      277.853 sec (=   4.631 min)   6.9 %
SCF iterations                   ...     2391.833 sec (=  39.864 min)  59.0 %
Property integrals               ...      234.211 sec (=   3.904 min)   5.8 %
SCF Response                     ...      353.826 sec (=   5.897 min)   8.7 %
Property calculations            ...      325.566 sec (=   5.426 min)   8.0 %
SCF Gradient evaluation          ...      470.671 sec (=   7.845 min)  11.6 %
                             ****ORCA TERMINATED NORMALLY****
TOTAL RUN TIME: 0 days 1 hours 22 minutes 26 seconds 852 msec
