
                                 *****************
                                 * O   R   C   A *
                                 *****************

                                            #,                                       
                                            ###                                      
                                            ####                                     
                                            #####                                    
                                            ######                                   
                                           ########,                                 
                                     ,,################,,,,,                         
                               ,,#################################,,                 
                          ,,##########################################,,             
                       ,#########################################, ''#####,          
                    ,#############################################,,   '####,        
                  ,##################################################,,,,####,       
                ,###########''''           ''''###############################       
              ,#####''   ,,,,##########,,,,          '''####'''          '####       
            ,##' ,,,,###########################,,,                        '##       
           ' ,,###''''                  '''############,,,                           
         ,,##''                                '''############,,,,        ,,,,,,###''
      ,#''                                            '''#######################'''  
     '                                                          ''''####''''         
             ,#######,   #######,   ,#######,      ##                                
            ,#'     '#,  ##    ##  ,#'     '#,    #''#        ,####,   ,####,        
            ##       ##  ##   ,#'  ##            #'  '#       #'       #'  '#        
            ##       ##  #######   ##           ,######,      #####,   #    #        
            '#,     ,#'  ##    ##  '#,     ,#' ,#      #,     #,   #   #,  ,#        
             '#######'   ##     ##  '#######'  #'      '#     '####' # '####'        



                #########################################################
                #                        -***-                          #
                #          Department of theory and spectroscopy        #
                #                                                       #
                #                      Frank Neese                      #
                #                                                       #
                #     Directorship, Architecture, Infrastructure        #
                #                    SHARK, DRIVERS                     #
                #        Core code/Algorithms in most modules           #
                #                                                       #
                #        Max Planck Institute fuer Kohlenforschung      #
                #                Kaiser Wilhelm Platz 1                 #
                #                 D-45470 Muelheim/Ruhr                 #
                #                      Germany                          #
                #                                                       #
                #                  All rights reserved                  #
                #                        -***-                          #
                #########################################################


                         Program Version 6.0.1  -  RELEASE   -


 With contributions from (in alphabetic order):
[Max-Planck-Institut fuer Kohlenforschung]                               
  Daniel Aravena         : Magnetic Suceptibility                        
  Michael Atanasov       : Ab Initio Ligand Field Theory (pilot matlab implementation)
  Alexander A. Auer      : GIAO ZORA, VPT2 properties, NMR spectrum      
  Ute Becker             : All parallelization in ORCA, NUMFREQ, NUMCALC 
  Giovanni Bistoni       : ED, misc. LED, open-shell LED, HFLD           
  Martin Brehm           : Molecular dynamics                            
  Dmytro Bykov           : pre 5.0 version of the SCF Hessian            
  Marcos Casanova-Páez   : Triplet and SCS-CIS(D). UHF-(DLPNO)-IP/EA/STEOM-CCSD. UHF-CVS-IP/STEOM-CCSD   
  Vijay G. Chilkuri      : MRCI spin determinant printing, contributions to CSF-ICE 
  Pauline Colinet        : FMM embedding                                 
  Dipayan Datta          : RHF DLPNO-CCSD density                        
  Achintya Kumar Dutta   : EOM-CC, STEOM-CC                              
  Nicolas Foglia         : Exact transition moments, OPA infrastructure, MCD improvements    
  Dmitry Ganyushin       : Spin-Orbit,Spin-Spin,Magnetic field MRCI      
  Miquel Garcia-Rates    : C-PCM and meta-GGA Hessian, CCSD/C-PCM, Gaussian charge scheme 
  Tiago L. C. Gouveia    : GS-ROHF, GS-ROCIS                             
  Yang Guo               : DLPNO-NEVPT2, F12-NEVPT2, CIM, IAO-localization        
  Andreas Hansen         : Spin unrestricted coupled pair/coupled cluster methods 
  Ingolf Harden          : AUTO-CI MPn and infrastructure                
  Benjamin Helmich-Paris : MC-RPA, TRAH-(SCF,CASSCF), AVAS, COSX integrals, SCF dyn. polar. 
  Lee Huntington         : MR-EOM, pCC                                   
  Robert Izsak           : Overlap fitted RIJCOSX, COSX-SCS-MP3, EOM     
  Riya Kayal             : Wick's Theorem for AUTO-CI, AUTO-CI UHF-CCSDT 
  Emily Kempfer          : AUTO-CI, RHF CISDT and CCSDT                  
  Christian Kollmar      : KDIIS, OOCD, Brueckner-CCSD(T), CCSD density, CASPT2, CASPT2-K, improved NEVPT2 
  Axel Koslowski         : Symmetry handling                             
  Simone Kossmann        : meta-GGA functionals, TD-DFT gradient, OOMP2, (MP2 Hessian; deprecated post 5.0) 
  Lucas Lang             : DCDCAS                                        
  Marvin Lechner         : AUTO-CI (C++ implementation), FIC-MRCC        
  Spencer Leger          : CASSCF response                               
  Dagmar Lenk            : GEPOL surface, SMD, ORCA-2-JSON               
  Dimitrios Liakos       : Extrapolation schemes; Compound Job, initial MDCI parallelization 
  Dimitrios Manganas     : Further ROCIS development; embedding schemes. LFT, Crystal Embedding 
  Dimitrios Pantazis     : SARC Basis sets                               
  Anastasios Papadopoulos: AUTO-CI, single reference methods and gradients 
  Taras Petrenko         : pre 6.0 DFT Hessian and TD-DFT gradient, (ASA, deprecated), ECA, 1-Electron XAS/XES, NRVS 
  Peter Pinski           : DLPNO-MP2, DLPNO-MP2 Gradient                 
  Christoph Reimann      : Effective Core Potentials                     
  Marius Retegan         : Local ZFS, SOC                                
  Christoph Riplinger    : Optimizer, TS searches, QM/MM, DLPNO-CCSD(T), (RO)-DLPNO pert. Triples 
  Michael Roemelt        : Original ROCIS implementation                 
  Masaaki Saitow         : Open-shell DLPNO-CCSD energy and density      
  Barbara Sandhoefer     : DKH picture change effects                    
  Kantharuban Sivalingam : CASSCF convergence/infrastructure, NEVPT2 and variants, FIC-MRCI 
  Bernardo de Souza      : ESD, SOC TD-DFT                               
  Georgi L. Stoychev     : AutoAux, RI-MP2 NMR, DLPNO-MP2 response, X2C  
  Van Anh Tran           : RI-MP2 g-tensors                              
  Willem Van den Heuvel  : Paramagnetic NMR                              
  Zikuan Wang            : NOTCH, Electric field optimization            
  Frank Wennmohs         : Technical directorship and infrastructure     
  Hang Xu                : AUTO-CI-Response properties                   
                                                                         
[FACCTs GmbH]                                                            
  Markus Bursch, Miquel Garcia-Rates, Christoph Riplinger, Bernardo de Souza, Georgi L. Stoychev 
                                                                 
  APM, Basis sets (HGBS, AHGBS, def-TZVP (Ac-Lr), def2-XVPD (La-Lu)), CI-OPT, improved COSX, DLPNO-Multilevel,           
  DOCKER, DRACO, updates on ESD, GOAT, IRC, LR-CPCM, MBIS, meta-GGA TD-DFT gradient, ML-optimized integration grids, 
  MM, NACMEs, nearIR, NEB, NEB-TS, NL-DFT gradient (VV10), 2- and 3-layer-ONIOM, interface openCOSMO-RS, QMMM,   
  Crystal-QMMM, SF, symmetry and pop. for TD-DFT, r2SCAN hybrids, SOLVATOR                                   
                                                                         
[Other institutions]                                                     
  V. Asgeirsson          : NEB                                           
  Christoph Bannwarth    : sTDA-DFT, sTD-DFT, PBEh-3c, B97-3c, D3        
  Sebastian Ehlert       : rSCAN, r2SCAN, r2SCAN-3c, D4, dhf basis sets  
  Marvin Friede          : D4 for Fr, Ra, Ac-Lr                          
  Lars Goerigk           : TD-DFT with DH, B97 family of functionals     
  Stefan Grimme          : VdW corrections, initial TS optimization, DFT functionals, gCP, sTDA/sTD-DF 
  Waldemar Hujo          : DFT-NL                                        
  H. Jonsson             : NEB                                           
  Holger Kruse           : gCP                                           
  Marcel Mueller         : wB97X-3c, vDZP basis set                      
  Hagen Neugebauer       : wr2SCAN                                       
  Tobias Risthaus        : range-separated hybrid DFT                    
  Lukas Wittmann         : regularized MP2, r2SCAN double-hybrids, wr2SCAN        
                                                                         
We gratefully acknowledge several colleagues who have allowed us to      
interface, adapt or use parts of their codes:                            
  Ed Valeev, F. Pavosevic, A. Kumar             : LibInt (2-el integral package), F12 methods 
  Garnet Chan, S. Sharma, J. Yang, R. Olivares  : DMRG                   
  Ulf Ekstrom                                   : XCFun DFT Library      
  Mihaly Kallay                                 : mrcc  (arbitrary order and MRCC methods)
  Frank Weinhold                                : gennbo (NPA and NBO analysis)           
  Simon Mueller                                 : openCOSMO-RS                            
  Christopher J. Cramer and Donald G. Truhlar   : smd solvation model                     
  S Lehtola, MJT Oliveira, MAL Marques          : LibXC Library                           
  Liviu Ungur et al                             : ANISO software                          


 Your calculation uses the libint2 library for the computation of 2-el integrals
 For citations please refer to: http://libint.valeyev.net

 Your ORCA version has been built with support for libXC version: 6.2.2
 For citations please refer to: https://libxc.gitlab.io

 This ORCA versions uses:
   CBLAS   interface :  Fast vector & matrix operations
   LAPACKE interface :  Fast linear algebra routines
   SCALAPACK package :  Parallel linear algebra routines
   Shared memory     :  Shared parallel matrices
   BLAS/LAPACK       :  OpenBLAS 0.3.27  USE64BITINT DYNAMIC_ARCH NO_AFFINITY Zen SINGLE_THREADED
        Core in use  :  Zen
   Copyright (c) 2011-2014, The OpenBLAS Project


NOTE: MaxCore=2560 MB was set to SCF,MP2,MDCI,CIPSI,MRCI and CIS
      => If you want to overwrite this, your respective input block should be placed after the MaxCore statement
Your calculation utilizes the atom-pairwise dispersion correction
with the zero-damping scheme (D30)


XCFun DFT library Copyright 2009-2010 Ulf Ekstrom and contributors.
See http://admol.org/xcfun for more information.
This is free software; see the source code for copying conditions.
There is ABSOLUTELY NO WARRANTY; not even for MERCHANTABILITY or FITNESS FOR A PARTICULAR PURPOSE.
For details see the documentation.
Scientific users of this library should cite U. Ekstrom, L. Visscher, R. Bast, A. J. Thorvaldsen and K. Ruud;
J.Chem.Theor.Comp. 2010, DOI: 10.1021/ct100117s
XCFun Version 0.99 

Warning: RI is on but no J-basis has been assigned. Assigning Def2/J (nothing to worry about!)
================================================================================

----- Orbital basis set information -----
Your calculation utilizes the basis: 6-31G**
   H-He, Li-Ne : W. J. Hehre, R. Ditchfield and J.A. Pople, J. Chem. Phys. 56, 2257 (1972).
                 Note: He and Ne are unpublished basis sets taken from the Gaussian program.
                 Note: Li and B from J. D. Dill and J. A. Pople, J. Chem. Phys. 62, 2921 (1975).
   Na - Ar     : M. M. Francl, W. J. Pietro, W. J. Hehre, J. S. Binkley, M. S. Gordon, 
                 D. J. DeFrees and J. A. Pople, J. Chem. Phys. 77, 3654 (1982).
   K - Zn      : V. A. Rassolov, J. A. Pople, M. A. Ratner, and T. L. Windus, J. Chem. Phys. 109, 1223 (1998).

----- AuxJ basis set information -----
Your calculation utilizes the auxiliary basis: def2/J
   F. Weigend, Phys. Chem. Chem. Phys. 8, 1057 (2006).

================================================================================
                                        WARNINGS
                       Please study these warnings very carefully!
================================================================================


WARNING: Geometry Optimization
  ===> : Switching off AutoStart
         For restart on a previous wavefunction, please use MOREAD

================================================================================
                                       INPUT FILE
================================================================================
NAME = input.inp
|  1> # Automatically generated ORCA input
|  2> 
|  3> # Number of cores
|  4> %pal nprocs 24 end
|  5> # RAM per core
|  6> %maxcore 2560
|  7> 
|  8> ! wB97X-D3 
|  9> ! 6-31G** 
| 10> ! TightSCF 
| 11> ! Freq 
| 12> ! NoSym 
| 13> ! Opt 
| 14> 
| 15> %geom
| 16>   Calc_Hess true
| 17> end
| 18> 
| 19> 
| 20> *xyz 0 1 
| 21> C        -2.12977107     -1.93052287      1.30716357
| 22> C        -0.78185060     -1.60161897      1.21695429
| 23> C        -0.34723750     -0.34084234      0.78184304
| 24> C        -1.32789216      0.60920891      0.42180298
| 25> C        -2.68347333      0.26621239      0.51476311
| 26> C        -3.08821659     -0.98935005      0.95354351
| 27> H        -2.42752181     -2.91917545      1.64564947
| 28> H        -0.04088698     -2.35281284      1.48233757
| 29> H        -3.43300115      0.99847674      0.23413530
| 30> H        -4.14670708     -1.22828315      1.01247569
| 31> B         1.21505875     -0.00614124      0.69954212
| 32> H         1.69058536     -1.02394582     -0.02002154
| 33> C         2.03162964      0.02869890      2.11703558
| 34> C         1.60475574     -0.40438417      3.38261269
| 35> C         2.33619741      0.26306516      4.36910699
| 36> H         0.83052893     -1.14211450      3.54216685
| 37> C         3.19208744      1.12877624      3.70072714
| 38> H         2.27336743      0.13784107      5.44084619
| 39> H         3.93146734      1.81442797      4.09413562
| 40> H         1.58757618      0.88459830     -0.00848509
| 41> B         2.52778827     -1.36542381      0.92875017
| 42> O         3.84599590     -1.23216390      0.48149969
| 43> O         2.28229656     -2.65159205      1.41556457
| 44> C         4.59668583     -2.21872468      1.21501140
| 45> C         3.53650112     -3.36091397      1.44503395
| 46> C         5.81029691     -2.62801891      0.39035297
| 47> H         6.48429464     -1.77407898      0.28162924
| 48> H         6.36089862     -3.42937498      0.89457558
| 49> H         5.53078261     -2.96933235     -0.60747163
| 50> C         5.06097030     -1.56349685      2.51708507
| 51> H         5.62020528     -0.65728879      2.26738802
| 52> H         4.21596750     -1.27715342      3.14698375
| 53> H         5.71384335     -2.22346128      3.09398059
| 54> C         3.64552155     -4.05462260      2.79900877
| 55> H         2.88129631     -4.83295650      2.87409689
| 56> H         4.62516828     -4.52662895      2.92664814
| 57> H         3.48314648     -3.34619204      3.61317883
| 58> C         3.52833110     -4.40544556      0.32668094
| 59> H         4.43670316     -5.01721819      0.35013324
| 60> H         2.67145960     -5.07066703      0.46011518
| 61> H         3.44938923     -3.94013992     -0.65911276
| 62> N         3.00946842      1.00122110      2.37329831
| 63> C         3.70049453      1.79222653      1.37305021
| 64> H         4.13097028      1.12890799      0.62213670
| 65> H         3.00896517      2.48894921      0.89182915
| 66> H         4.49472838      2.35646577      1.86488339
| 67> C        -1.02021354      2.13343327     -1.51177668
| 68> C        -1.06548981      3.03356949      0.90642331
| 69> C        -0.08364935      3.30029408     -1.87628570
| 70> C        -0.14009022      4.17541748      0.44471797
| 71> C        -0.31641819      4.54051548     -1.02339643
| 72> H        -0.20210416      3.52972574     -2.94201158
| 73> H         0.95039922      2.96125373     -1.72995794
| 74> H        -0.30526449      5.04738211      1.08889906
| 75> H         0.89752954      3.85120775      0.60171392
| 76> H         0.39090444      5.32961695     -1.30279047
| 77> H        -1.31837587      4.95086699     -1.20185056
| 78> N        -0.93096717      1.90649098     -0.04750558
| 79> C        -0.51058656      0.88667035     -2.25203742
| 80> H         0.48907921      0.60936494     -1.91125510
| 81> H        -1.17329527      0.02921167     -2.10895601
| 82> H        -0.46161594      1.09963302     -3.32472345
| 83> C        -2.44025838      2.41977233     -2.05447928
| 84> H        -2.40463541      2.50604576     -3.14595413
| 85> H        -3.12443104      1.60184338     -1.81523178
| 86> H        -2.86912755      3.34647669     -1.66929039
| 87> C        -2.50340093      3.57443385      1.09047907
| 88> H        -3.17895124      2.78412003      1.42758690
| 89> H        -2.50963982      4.35727025      1.85664263
| 90> H        -2.91742691      4.00835800      0.17871570
| 91> C        -0.57712225      2.58606095      2.29240569
| 92> H         0.44382655      2.19850171      2.24534180
| 93> H        -0.58872345      3.44371411      2.97306816
| 94> H        -1.21480243      1.80797788      2.71989323
| 95> *
| 96> 
| 97> 
| 98>                          ****END OF INPUT****
================================================================================

                       *****************************
                       * Geometry Optimization Run *
                       *****************************

Geometry optimization settings:
Update method            Update   .... BFGS
Choice of coordinates    CoordSys .... (2022) Redundant Internals
Initial Hessian          InHess   .... Almloef's Model
Max. no of cycles        MaxIter  .... 222

Convergence Tolerances:
Energy Change            TolE     ....  5.0000e-06 Eh
Max. Gradient            TolMAXG  ....  3.0000e-04 Eh/bohr
RMS Gradient             TolRMSG  ....  1.0000e-04 Eh/bohr
Max. Displacement        TolMAXD  ....  4.0000e-03 bohr
RMS Displacement         TolRMSD  ....  2.0000e-03 bohr
Strict Convergence                .... False

------------------------------------------------------------------------------
                        ORCA OPTIMIZATION COORDINATE SETUP
------------------------------------------------------------------------------

The optimization will be done in redundant internal coordinates (2022)
Making redundant internal coordinates   ...  (2022 redundants) done
Evaluating the initial hessian          ...  (Is done on the fly) done
Evaluating the coordinates              ...  done
Calculating the B-matrix                .... done
Calculating the G-matrix                .... done
Diagonalizing the G-matrix              .... done
Small eigenvalue found = 2.862e-03
Small eigenvalue found = 4.857e-03
Small eigenvalue found = 7.074e-03
Small eigenvalue found = 1.243e-02
Small eigenvalue found = 1.390e-02
Small eigenvalue found = 1.630e-02
Small eigenvalue found = 1.945e-02
Small eigenvalue found = 2.426e-02
Small eigenvalue found = 2.544e-02
Small eigenvalue found = 2.995e-02
The first mode is                       ....  213
The number of degrees of freedom        ....  216

    -----------------------------------------------------------------
                    Redundant Internal Coordinates


    -----------------------------------------------------------------
         Definition                    Initial Value    d2E/dq (diagonal element)
    -----------------------------------------------------------------
      1. B(C   1,C   0)                  1.3904         0.000000   
      2. B(C   2,C   1)                  1.4028         0.000000   
      3. B(C   3,C   2)                  1.4121         0.000000   
      4. B(C   4,C   3)                  1.4014         0.000000   
      5. B(C   5,C   4)                  1.3902         0.000000   
      6. B(C   5,C   0)                  1.3891         0.000000   
      7. B(H   6,C   0)                  1.0866         0.000000   
      8. B(H   7,C   1)                  1.0880         0.000000   
      9. B(H   8,C   4)                  1.0848         0.000000   
     10. B(H   9,C   5)                  1.0867         0.000000   
     11. B(B  10,C   2)                  1.5999         0.000000   
     12. B(H  11,B  10)                  1.3341         0.000000   
     13. B(C  12,B  10)                  1.6362         0.000000   
     14. B(C  13,C  12)                  1.4041         0.000000   
     15. B(C  14,C  13)                  1.3977         0.000000   
     16. B(H  15,C  13)                  1.0813         0.000000   
     17. B(C  16,C  14)                  1.3888         0.000000   
     18. B(H  17,C  14)                  1.0809         0.000000   
     19. B(H  18,C  16)                  1.0824         0.000000   
     20. B(H  19,B  10)                  1.1973         0.000000   
     21. B(B  20,C  12)                  1.8978         0.000000   
     22. B(B  20,H  11)                  1.3106         0.000000   
     23. B(B  20,B  10)                  1.9035         0.000000   
     24. B(O  21,B  20)                  1.3984         0.000000   
     25. B(O  22,B  20)                  1.3970         0.000000   
     26. B(C  23,O  21)                  1.4404         0.000000   
     27. B(C  24,C  23)                  1.5753         0.000000   
     28. B(C  24,O  22)                  1.4412         0.000000   
     29. B(C  25,C  23)                  1.5233         0.000000   
     30. B(H  26,C  25)                  1.0933         0.000000   
     31. B(H  27,C  25)                  1.0953         0.000000   
     32. B(H  28,C  25)                  1.0910         0.000000   
     33. B(C  29,C  23)                  1.5298         0.000000   
     34. B(H  30,C  29)                  1.0938         0.000000   
     35. B(H  31,C  29)                  1.0922         0.000000   
     36. B(H  32,C  29)                  1.0930         0.000000   
     37. B(C  33,C  24)                  1.5252         0.000000   
     38. B(H  34,C  33)                  1.0934         0.000000   
     39. B(H  35,C  33)                  1.0949         0.000000   
     40. B(H  36,C  33)                  1.0914         0.000000   
     41. B(C  37,C  24)                  1.5303         0.000000   
     42. B(H  38,C  37)                  1.0954         0.000000   
     43. B(H  39,C  37)                  1.0930         0.000000   
     44. B(H  40,C  37)                  1.0929         0.000000   
     45. B(N  41,C  16)                  1.3460         0.000000   
     46. B(N  41,C  12)                  1.4027         0.000000   
     47. B(C  42,N  41)                  1.4504         0.000000   
     48. B(H  43,C  42)                  1.0905         0.000000   
     49. B(H  44,C  42)                  1.0933         0.000000   
     50. B(H  45,C  42)                  1.0914         0.000000   
     51. B(C  48,C  46)                  1.5400         0.000000   
     52. B(C  49,C  47)                  1.5406         0.000000   
     53. B(C  50,C  49)                  1.5231         0.000000   
     54. B(C  50,C  48)                  1.5231         0.000000   
     55. B(H  51,C  48)                  1.0966         0.000000   
     56. B(H  52,C  48)                  1.0980         0.000000   
     57. B(H  53,C  49)                  1.0966         0.000000   
     58. B(H  54,C  49)                  1.0984         0.000000   
     59. B(H  55,C  50)                  1.0959         0.000000   
     60. B(H  55,H  44)                  4.4430         0.000000   
     61. B(H  56,C  50)                  1.0973         0.000000   
     62. B(N  57,C  47)                  1.4827         0.000000   
     63. B(N  57,C  46)                  1.4844         0.000000   
     64. B(N  57,C   3)                  1.4355         0.000000   
     65. B(C  58,C  46)                  1.5369         0.000000   
     66. B(H  59,C  58)                  1.0920         0.000000   
     67. B(H  60,C  58)                  1.0931         0.000000   
     68. B(H  61,C  58)                  1.0947         0.000000   
     69. B(C  62,C  46)                  1.5469         0.000000   
     70. B(H  63,C  62)                  1.0955         0.000000   
     71. B(H  64,C  62)                  1.0929         0.000000   
     72. B(H  65,C  62)                  1.0914         0.000000   
     73. B(C  66,C  47)                  1.5473         0.000000   
     74. B(H  67,C  66)                  1.0930         0.000000   
     75. B(H  68,C  66)                  1.0954         0.000000   
     76. B(H  69,C  66)                  1.0913         0.000000   
     77. B(C  70,C  47)                  1.5361         0.000000   
     78. B(H  71,C  70)                  1.0930         0.000000   
     79. B(H  72,C  70)                  1.0950         0.000000   
     80. B(H  73,C  70)                  1.0931         0.000000   
     81. A(C   1,C   0,C   5)          119.4801         0.000000   
     82. A(C   1,C   0,H   6)          120.0727         0.000000   
     83. A(C   5,C   0,H   6)          120.4459         0.000000   
     84. A(C   0,C   1,C   2)          122.2147         0.000000   
     85. A(C   0,C   1,H   7)          118.7557         0.000000   
     86. A(C   2,C   1,H   7)          119.0258         0.000000   
     87. A(C   3,C   2,B  10)          121.6214         0.000000   
     88. A(C   1,C   2,C   3)          117.9452         0.000000   
     89. A(C   1,C   2,B  10)          120.4333         0.000000   
     90. A(C   2,C   3,C   4)          119.3536         0.000000   
     91. A(C   4,C   3,N  57)          120.6860         0.000000   
     92. A(C   2,C   3,N  57)          119.9570         0.000000   
     93. A(C   5,C   4,H   8)          119.3491         0.000000   
     94. A(C   3,C   4,H   8)          119.0770         0.000000   
     95. A(C   3,C   4,C   5)          121.5737         0.000000   
     96. A(C   0,C   5,C   4)          119.4321         0.000000   
     97. A(C   4,C   5,H   9)          119.9503         0.000000   
     98. A(C   0,C   5,H   9)          120.6169         0.000000   
     99. A(C  12,B  10,H  19)          109.9493         0.000000   
    100. A(C   2,B  10,H  19)          119.3335         0.000000   
    101. A(H  19,B  10,B  20)          112.8235         0.000000   
    102. A(H  11,B  10,C  12)          107.7953         0.000000   
    103. A(H  11,B  10,H  19)           97.9162         0.000000   
    104. A(C   2,B  10,C  12)          116.5657         0.000000   
    105. A(C  12,B  10,B  20)           64.3248         0.000000   
    106. A(C   2,B  10,H  11)          102.4865         0.000000   
    107. A(C   2,B  10,B  20)          121.1880         0.000000   
    108. A(H  11,B  10,B  20)           43.4771         0.000000   
    109. A(B  10,H  11,B  20)           92.0639         0.000000   
    110. A(B  10,C  12,B  20)           64.6851         0.000000   
    111. A(C  13,C  12,B  20)          114.6619         0.000000   
    112. A(B  20,C  12,N  41)          116.1956         0.000000   
    113. A(B  10,C  12,C  13)          128.5032         0.000000   
    114. A(C  13,C  12,N  41)          105.1361         0.000000   
    115. A(B  10,C  12,N  41)          121.3938         0.000000   
    116. A(C  12,C  13,H  15)          124.1350         0.000000   
    117. A(C  14,C  13,H  15)          126.6101         0.000000   
    118. A(C  12,C  13,C  14)          109.2549         0.000000   
    119. A(C  13,C  14,C  16)          106.2902         0.000000   
    120. A(C  16,C  14,H  17)          125.8208         0.000000   
    121. A(C  13,C  14,H  17)          127.8853         0.000000   
    122. A(C  14,C  16,H  18)          129.8614         0.000000   
    123. A(H  18,C  16,N  41)          120.7412         0.000000   
    124. A(C  14,C  16,N  41)          109.3867         0.000000   
    125. A(O  21,B  20,O  22)          111.3986         0.000000   
    126. A(C  12,B  20,O  22)          114.3426         0.000000   
    127. A(H  11,B  20,O  22)          112.3277         0.000000   
    128. A(B  10,B  20,O  22)          125.3257         0.000000   
    129. A(C  12,B  20,O  21)          112.1294         0.000000   
    130. A(H  11,B  20,O  21)          110.2309         0.000000   
    131. A(B  10,B  20,O  21)          122.9242         0.000000   
    132. A(H  11,B  20,C  12)           95.4437         0.000000   
    133. A(B  10,B  20,H  11)           44.4591         0.000000   
    134. A(B  10,B  20,C  12)           50.9901         0.000000   
    135. A(B  20,O  21,C  23)          105.2563         0.000000   
    136. A(B  20,O  22,C  24)          107.8988         0.000000   
    137. A(C  25,C  23,C  29)          109.5158         0.000000   
    138. A(C  24,C  23,C  29)          112.9873         0.000000   
    139. A(O  21,C  23,C  29)          107.3519         0.000000   
    140. A(C  24,C  23,C  25)          114.8612         0.000000   
    141. A(O  21,C  23,C  25)          108.8778         0.000000   
    142. A(O  21,C  23,C  24)          102.7218         0.000000   
    143. A(O  22,C  24,C  23)          103.0526         0.000000   
    144. A(C  33,C  24,C  37)          109.7966         0.000000   
    145. A(C  23,C  24,C  37)          113.0659         0.000000   
    146. A(O  22,C  24,C  37)          108.4425         0.000000   
    147. A(C  23,C  24,C  33)          114.2862         0.000000   
    148. A(O  22,C  24,C  33)          107.7104         0.000000   
    149. A(H  27,C  25,H  28)          108.7206         0.000000   
    150. A(H  26,C  25,H  28)          108.1401         0.000000   
    151. A(C  23,C  25,H  28)          112.0289         0.000000   
    152. A(H  26,C  25,H  27)          107.8993         0.000000   
    153. A(C  23,C  25,H  27)          110.3575         0.000000   
    154. A(C  23,C  25,H  26)          109.5799         0.000000   
    155. A(C  23,C  29,H  30)          108.4051         0.000000   
    156. A(H  31,C  29,H  32)          108.4243         0.000000   
    157. A(H  30,C  29,H  32)          108.3829         0.000000   
    158. A(C  23,C  29,H  32)          111.8336         0.000000   
    159. A(H  30,C  29,H  31)          108.0614         0.000000   
    160. A(C  23,C  29,H  31)          111.6155         0.000000   
    161. A(H  35,C  33,H  36)          109.0252         0.000000   
    162. A(H  34,C  33,H  36)          107.8699         0.000000   
    163. A(C  24,C  33,H  36)          110.8774         0.000000   
    164. A(H  34,C  33,H  35)          108.0892         0.000000   
    165. A(C  24,C  33,H  35)          111.3160         0.000000   
    166. A(C  24,C  33,H  34)          109.5586         0.000000   
    167. A(H  39,C  37,H  40)          108.2167         0.000000   
    168. A(H  38,C  37,H  40)          108.4798         0.000000   
    169. A(C  24,C  37,H  40)          111.6509         0.000000   
    170. A(H  38,C  37,H  39)          107.9142         0.000000   
    171. A(C  24,C  37,H  39)          109.2933         0.000000   
    172. A(C  24,C  37,H  38)          111.1693         0.000000   
    173. A(C  16,N  41,C  42)          124.3187         0.000000   
    174. A(C  12,N  41,C  42)          125.7493         0.000000   
    175. A(C  12,N  41,C  16)          109.9045         0.000000   
    176. A(H  44,C  42,H  45)          109.2211         0.000000   
    177. A(H  43,C  42,H  45)          109.7262         0.000000   
    178. A(N  41,C  42,H  45)          108.5354         0.000000   
    179. A(H  43,C  42,H  44)          109.5265         0.000000   
    180. A(N  41,C  42,H  44)          110.4719         0.000000   
    181. A(N  41,C  42,H  43)          109.3429         0.000000   
    182. A(N  57,C  46,C  58)          109.3389         0.000000   
    183. A(C  48,C  46,C  58)          107.3971         0.000000   
    184. A(C  48,C  46,N  57)          108.2253         0.000000   
    185. A(C  58,C  46,C  62)          106.5928         0.000000   
    186. A(N  57,C  46,C  62)          115.4386         0.000000   
    187. A(C  48,C  46,C  62)          109.5715         0.000000   
    188. A(C  49,C  47,N  57)          108.4272         0.000000   
    189. A(C  66,C  47,C  70)          106.8555         0.000000   
    190. A(N  57,C  47,C  70)          109.2805         0.000000   
    191. A(C  49,C  47,C  70)          107.1789         0.000000   
    192. A(N  57,C  47,C  66)          115.2503         0.000000   
    193. A(C  49,C  47,C  66)          109.5601         0.000000   
    194. A(H  51,C  48,H  52)          107.2089         0.000000   
    195. A(C  50,C  48,H  52)          108.7074         0.000000   
    196. A(C  46,C  48,H  52)          107.8924         0.000000   
    197. A(C  50,C  48,H  51)          110.9377         0.000000   
    198. A(C  46,C  48,H  51)          108.8370         0.000000   
    199. A(C  46,C  48,C  50)          113.0480         0.000000   
    200. A(H  53,C  49,H  54)          107.0395         0.000000   
    201. A(C  50,C  49,H  54)          108.5361         0.000000   
    202. A(C  47,C  49,H  54)          107.8092         0.000000   
    203. A(C  50,C  49,H  53)          110.9889         0.000000   
    204. A(C  47,C  49,H  53)          108.8335         0.000000   
    205. A(C  47,C  49,C  50)          113.3915         0.000000   
    206. A(H  55,C  50,H  56)          106.1764         0.000000   
    207. A(C  49,C  50,H  56)          110.6161         0.000000   
    208. A(C  48,C  50,H  56)          110.6699         0.000000   
    209. A(C  49,C  50,H  55)          110.0976         0.000000   
    210. A(C  48,C  50,H  55)          110.1767         0.000000   
    211. A(C  48,C  50,C  49)          109.0799         0.000000   
    212. A(C  46,N  57,C  47)          120.8616         0.000000   
    213. A(C   3,N  57,C  47)          116.8418         0.000000   
    214. A(C   3,N  57,C  46)          116.3605         0.000000   
    215. A(C  46,C  58,H  59)          111.0546         0.000000   
    216. A(H  60,C  58,H  61)          107.9374         0.000000   
    217. A(H  59,C  58,H  61)          108.3158         0.000000   
    218. A(C  46,C  58,H  61)          109.2070         0.000000   
    219. A(H  59,C  58,H  60)          108.3587         0.000000   
    220. A(C  46,C  58,H  60)          111.8547         0.000000   
    221. A(H  64,C  62,H  65)          108.1938         0.000000   
    222. A(H  63,C  62,H  65)          107.3114         0.000000   
    223. A(C  46,C  62,H  65)          113.2087         0.000000   
    224. A(H  63,C  62,H  64)          107.3030         0.000000   
    225. A(C  46,C  62,H  64)          111.0601         0.000000   
    226. A(C  46,C  62,H  63)          109.5283         0.000000   
    227. A(H  68,C  66,H  69)          107.3397         0.000000   
    228. A(H  67,C  66,H  69)          108.1013         0.000000   
    229. A(C  47,C  66,H  69)          113.0896         0.000000   
    230. A(H  67,C  66,H  68)          107.3082         0.000000   
    231. A(C  47,C  66,H  68)          109.7744         0.000000   
    232. A(C  47,C  66,H  67)          110.9975         0.000000   
    233. A(H  72,C  70,H  73)          107.9543         0.000000   
    234. A(H  71,C  70,H  73)          108.0201         0.000000   
    235. A(C  47,C  70,H  73)          112.0098         0.000000   
    236. A(H  71,C  70,H  72)          108.3232         0.000000   
    237. A(C  47,C  70,H  72)          109.2268         0.000000   
    238. A(C  47,C  70,H  71)          111.1858         0.000000   
    239. D(H   7,C   1,C   0,H   6)      0.5191         0.000000   
    240. D(H   7,C   1,C   0,C   5)   -179.0730         0.000000   
    241. D(C   2,C   1,C   0,C   5)      0.2054         0.000000   
    242. D(C   2,C   1,C   0,H   6)    179.7975         0.000000   
    243. D(B  10,C   2,C   1,C   0)    179.7688         0.000000   
    244. D(B  10,C   2,C   1,H   7)     -0.9547         0.000000   
    245. D(C   3,C   2,C   1,H   7)    178.9526         0.000000   
    246. D(C   3,C   2,C   1,C   0)     -0.3239         0.000000   
    247. D(N  57,C   3,C   2,B  10)      0.7904         0.000000   
    248. D(C   4,C   3,C   2,B  10)   -179.8723         0.000000   
    249. D(N  57,C   3,C   2,C   1)   -179.1158         0.000000   
    250. D(C   4,C   3,C   2,C   1)      0.2215         0.000000   
    251. D(C   5,C   4,C   3,N  57)    179.3230         0.000000   
    252. D(H   8,C   4,C   3,C   2)   -179.8145         0.000000   
    253. D(C   5,C   4,C   3,C   2)     -0.0094         0.000000   
    254. D(H   8,C   4,C   3,N  57)     -0.4821         0.000000   
    255. D(H   9,C   5,C   4,H   8)     -0.0030         0.000000   
    256. D(H   9,C   5,C   0,H   6)      0.1193         0.000000   
    257. D(C   4,C   5,C   0,H   6)   -179.5720         0.000000   
    258. D(C   0,C   5,C   4,C   3)     -0.1142         0.000000   
    259. D(C   0,C   5,C   4,H   8)    179.6904         0.000000   
    260. D(H   9,C   5,C   0,C   1)    179.7098         0.000000   
    261. D(C   4,C   5,C   0,C   1)      0.0185         0.000000   
    262. D(H   9,C   5,C   4,C   3)   -179.8076         0.000000   
    263. D(C  12,B  10,C   2,C   3)    114.7336         0.000000   
    264. D(H  19,B  10,C   2,C   1)    158.7030         0.000000   
    265. D(H  19,B  10,C   2,C   3)    -21.2008         0.000000   
    266. D(H  11,B  10,C   2,C   3)   -127.8343         0.000000   
    267. D(H  11,B  10,C   2,C   1)     52.0696         0.000000   
    268. D(C  12,B  10,C   2,C   1)    -65.3625         0.000000   
    269. D(B  20,H  11,B  10,C   2)   -122.5004         0.000000   
    270. D(B  20,H  11,B  10,C  12)      1.0145         0.000000   
    271. D(B  20,H  11,B  10,H  19)    114.9941         0.000000   
    272. D(B  20,C  12,B  10,H  19)   -106.4615         0.000000   
    273. D(B  20,C  12,B  10,H  11)     -0.7745         0.000000   
    274. D(C  13,C  12,B  10,H  19)    151.2087         0.000000   
    275. D(C  13,C  12,B  10,B  20)   -102.3298         0.000000   
    276. D(B  20,C  12,B  10,C   2)    113.7051         0.000000   
    277. D(C  13,C  12,B  10,H  11)   -103.1043         0.000000   
    278. D(C  13,C  12,B  10,C   2)     11.3754         0.000000   
    279. D(H  15,C  13,C  12,B  10)     23.6431         0.000000   
    280. D(C  14,C  13,C  12,N  41)     -1.6950         0.000000   
    281. D(C  14,C  13,C  12,B  20)    127.1634         0.000000   
    282. D(H  15,C  13,C  12,B  20)    -52.7080         0.000000   
    283. D(C  14,C  13,C  12,B  10)   -156.4856         0.000000   
    284. D(H  17,C  14,C  13,H  15)      1.8468         0.000000   
    285. D(H  17,C  14,C  13,C  12)   -178.0206         0.000000   
    286. D(C  16,C  14,C  13,H  15)   -178.8333         0.000000   
    287. D(C  16,C  14,C  13,C  12)      1.2994         0.000000   
    288. D(N  41,C  16,C  14,H  17)    178.9780         0.000000   
    289. D(N  41,C  16,C  14,C  13)     -0.3601         0.000000   
    290. D(H  18,C  16,C  14,H  17)      0.1819         0.000000   
    291. D(H  18,C  16,C  14,C  13)   -179.1562         0.000000   
    292. D(C  12,B  20,H  11,B  10)     -0.8366         0.000000   
    293. D(O  21,B  20,B  10,H  11)     85.8897         0.000000   
    294. D(O  21,B  20,B  10,C   2)    160.1607         0.000000   
    295. D(C  12,B  20,B  10,H  19)    102.0292         0.000000   
    296. D(C  12,B  20,B  10,H  11)    178.9282         0.000000   
    297. D(C  12,B  20,B  10,C   2)   -106.8007         0.000000   
    298. D(H  11,B  20,B  10,H  19)    -76.8990         0.000000   
    299. D(H  11,B  20,B  10,C  12)   -178.9282         0.000000   
    300. D(O  21,B  20,H  11,B  10)   -116.8389         0.000000   
    301. D(H  11,B  20,B  10,C   2)     74.2711         0.000000   
    302. D(O  21,B  20,C  12,B  10)    115.1946         0.000000   
    303. D(H  11,B  20,C  12,N  41)   -113.4198         0.000000   
    304. D(H  11,B  20,C  12,C  13)    123.4809         0.000000   
    305. D(H  11,B  20,C  12,B  10)      0.7541         0.000000   
    306. D(B  10,B  20,C  12,N  41)   -114.1739         0.000000   
    307. D(B  10,B  20,C  12,C  13)    122.7268         0.000000   
    308. D(O  21,B  20,C  12,C  13)   -122.0786         0.000000   
    309. D(O  22,B  20,H  11,B  10)    118.2911         0.000000   
    310. D(C  23,O  21,B  20,O  22)    -25.2449         0.000000   
    311. D(C  23,O  21,B  20,C  12)    104.3437         0.000000   
    312. D(C  23,O  21,B  20,H  11)   -150.6447         0.000000   
    313. D(C  23,O  21,B  20,B  10)    161.2365         0.000000   
    314. D(C  24,O  22,B  20,O  21)      7.1807         0.000000   
    315. D(C  24,O  22,B  20,C  12)   -121.2345         0.000000   
    316. D(C  24,O  22,B  20,H  11)    131.4060         0.000000   
    317. D(C  24,O  22,B  20,B  10)   -179.4883         0.000000   
    318. D(C  25,C  23,O  21,B  20)    153.0082         0.000000   
    319. D(C  24,C  23,O  21,B  20)     30.8201         0.000000   
    320. D(C  29,C  23,O  21,B  20)    -88.5195         0.000000   
    321. D(C  33,C  24,C  23,C  25)     98.9390         0.000000   
    322. D(C  33,C  24,C  23,O  21)   -143.0151         0.000000   
    323. D(O  22,C  24,C  23,C  29)     88.8830         0.000000   
    324. D(O  22,C  24,C  23,C  25)   -144.4966         0.000000   
    325. D(O  22,C  24,C  23,O  21)    -26.4506         0.000000   
    326. D(C  37,C  24,O  22,B  20)   -107.9008         0.000000   
    327. D(C  33,C  24,O  22,B  20)    133.3305         0.000000   
    328. D(C  33,C  24,C  23,C  29)    -27.6814         0.000000   
    329. D(C  23,C  24,O  22,B  20)     12.1830         0.000000   
    330. D(H  27,C  25,C  23,C  29)     66.8614         0.000000   
    331. D(H  27,C  25,C  23,C  24)    -61.5189         0.000000   
    332. D(H  27,C  25,C  23,O  21)   -176.0351         0.000000   
    333. D(H  26,C  25,C  23,C  29)    -51.8188         0.000000   
    334. D(H  26,C  25,C  23,C  24)    179.8010         0.000000   
    335. D(H  26,C  25,C  23,O  21)     65.2848         0.000000   
    336. D(H  31,C  29,C  23,C  25)   -178.6585         0.000000   
    337. D(H  31,C  29,C  23,C  24)    -49.2477         0.000000   
    338. D(H  31,C  29,C  23,O  21)     63.2823         0.000000   
    339. D(H  30,C  29,C  23,C  25)     62.4393         0.000000   
    340. D(H  30,C  29,C  23,C  24)   -168.1499         0.000000   
    341. D(H  30,C  29,C  23,O  21)    -55.6199         0.000000   
    342. D(H  35,C  33,C  24,C  37)     68.0676         0.000000   
    343. D(H  35,C  33,C  24,C  23)    -60.1936         0.000000   
    344. D(H  35,C  33,C  24,O  22)   -174.0343         0.000000   
    345. D(H  34,C  33,C  24,C  37)    -51.4267         0.000000   
    346. D(H  34,C  33,C  24,C  23)   -179.6879         0.000000   
    347. D(H  34,C  33,C  24,O  22)     66.4714         0.000000   
    348. D(H  39,C  37,C  24,C  33)     60.2207         0.000000   
    349. D(H  39,C  37,C  24,C  23)   -170.8477         0.000000   
    350. D(H  39,C  37,C  24,O  22)    -57.2216         0.000000   
    351. D(H  38,C  37,C  24,C  33)    -58.7946         0.000000   
    352. D(H  38,C  37,C  24,C  23)     70.1370         0.000000   
    353. D(H  38,C  37,C  24,O  22)   -176.2370         0.000000   
    354. D(C  42,N  41,C  16,H  18)     -3.6063         0.000000   
    355. D(C  12,N  41,C  16,H  18)    178.2082         0.000000   
    356. D(C  12,N  41,C  16,C  14)     -0.7166         0.000000   
    357. D(C  42,N  41,C  12,C  13)   -176.6732         0.000000   
    358. D(C  42,N  41,C  12,B  10)    -19.6578         0.000000   
    359. D(C  16,N  41,C  12,B  20)   -126.4580         0.000000   
    360. D(C  42,N  41,C  16,C  14)    177.4689         0.000000   
    361. D(C  16,N  41,C  12,C  13)      1.4802         0.000000   
    362. D(C  16,N  41,C  12,B  10)    158.4957         0.000000   
    363. D(H  44,C  42,N  41,C  12)     68.0786         0.000000   
    364. D(H  43,C  42,N  41,C  16)    129.5722         0.000000   
    365. D(H  43,C  42,N  41,C  12)    -52.5300         0.000000   
    366. D(H  45,C  42,N  41,C  12)   -172.1987         0.000000   
    367. D(H  44,C  42,N  41,C  16)   -109.8192         0.000000   
    368. D(H  51,C  48,C  46,C  62)    -48.8330         0.000000   
    369. D(H  51,C  48,C  46,C  58)     66.5712         0.000000   
    370. D(H  51,C  48,C  46,N  57)   -175.4900         0.000000   
    371. D(C  50,C  48,C  46,C  62)     74.9104         0.000000   
    372. D(C  50,C  48,C  46,C  58)   -169.6854         0.000000   
    373. D(C  50,C  48,C  46,N  57)    -51.7466         0.000000   
    374. D(H  53,C  49,C  47,C  70)    -67.5144         0.000000   
    375. D(H  53,C  49,C  47,C  66)     48.0754         0.000000   
    376. D(H  53,C  49,C  47,N  57)    174.6268         0.000000   
    377. D(C  50,C  49,C  47,C  70)    168.4383         0.000000   
    378. D(C  50,C  49,C  47,C  66)    -75.9718         0.000000   
    379. D(C  50,C  49,C  47,N  57)     50.5796         0.000000   
    380. D(H  55,C  50,C  49,H  54)    -58.1408         0.000000   
    381. D(H  55,C  50,C  49,H  53)     59.2245         0.000000   
    382. D(C  48,C  50,C  49,H  54)     62.8695         0.000000   
    383. D(C  48,C  50,C  49,H  53)   -179.7652         0.000000   
    384. D(C  48,C  50,C  49,C  47)    -56.8995         0.000000   
    385. D(H  55,C  50,C  48,H  52)     58.6801         0.000000   
    386. D(H  55,C  50,C  48,H  51)    -58.9658         0.000000   
    387. D(H  55,C  50,C  48,C  46)    178.4539         0.000000   
    388. D(H  55,C  50,C  49,C  47)   -177.9098         0.000000   
    389. D(C  49,C  50,C  48,H  52)    -62.2819         0.000000   
    390. D(C  49,C  50,C  48,H  51)   -179.9277         0.000000   
    391. D(C  49,C  50,C  48,C  46)     57.4919         0.000000   
    392. D(C  46,N  57,C  47,C  49)    -48.9364         0.000000   
    393. D(C   3,N  57,C  47,C  70)     42.6532         0.000000   
    394. D(C   3,N  57,C  47,C  66)    -77.6532         0.000000   
    395. D(C   3,N  57,C  47,C  49)    159.1642         0.000000   
    396. D(C  47,N  57,C  46,C  58)    166.2438         0.000000   
    397. D(C  47,N  57,C  46,C  48)     49.5536         0.000000   
    398. D(C   3,N  57,C  46,C  62)     78.4090         0.000000   
    399. D(C   3,N  57,C  46,C  58)    -41.7283         0.000000   
    400. D(C   3,N  57,C  46,C  48)   -158.4186         0.000000   
    401. D(C  47,N  57,C   3,C   4)     76.8306         0.000000   
    402. D(C  47,N  57,C   3,C   2)   -103.8410         0.000000   
    403. D(C  46,N  57,C   3,C   4)    -76.3456         0.000000   
    404. D(C  46,N  57,C  47,C  66)     74.2463         0.000000   
    405. D(C  46,N  57,C   3,C   2)    102.9828         0.000000   
    406. D(H  60,C  58,C  46,C  62)    -57.9726         0.000000   
    407. D(H  60,C  58,C  46,N  57)     67.4488         0.000000   
    408. D(H  60,C  58,C  46,C  48)   -175.3376         0.000000   
    409. D(H  59,C  58,C  46,C  62)   -179.1728         0.000000   
    410. D(H  59,C  58,C  46,N  57)    -53.7514         0.000000   
    411. D(H  59,C  58,C  46,C  48)     63.4622         0.000000   
    412. D(H  64,C  62,C  46,C  58)     63.6669         0.000000   
    413. D(H  64,C  62,C  46,N  57)    -57.9594         0.000000   
    414. D(H  64,C  62,C  46,C  48)    179.5828         0.000000   
    415. D(H  63,C  62,C  46,C  58)    -54.6755         0.000000   
    416. D(H  63,C  62,C  46,N  57)   -176.3018         0.000000   
    417. D(H  63,C  62,C  46,C  48)     61.2404         0.000000   
    418. D(H  68,C  66,C  47,C  70)     54.7978         0.000000   
    419. D(H  68,C  66,C  47,N  57)    176.4228         0.000000   
    420. D(H  68,C  66,C  47,C  49)    -60.9978         0.000000   
    421. D(H  67,C  66,C  47,C  70)    -63.6677         0.000000   
    422. D(H  67,C  66,C  47,N  57)     57.9573         0.000000   
    423. D(H  67,C  66,C  47,C  49)   -179.4633         0.000000   
    424. D(H  72,C  70,C  47,C  66)    -59.9089         0.000000   
    425. D(H  72,C  70,C  47,N  57)    174.7677         0.000000   
    426. D(H  72,C  70,C  47,C  49)     57.4669         0.000000   
    427. D(H  71,C  70,C  47,C  66)   -179.3979         0.000000   
    428. D(H  71,C  70,C  47,N  57)     55.2787         0.000000   
    429. D(H  71,C  70,C  47,C  49)    -62.0222         0.000000   
    -----------------------------------------------------------------

Number of atoms                         .... 74
Number of degrees of freedom            .... 429


         *************************************************************
         *                GEOMETRY OPTIMIZATION CYCLE   1            *
         *************************************************************
---------------------------------
CARTESIAN COORDINATES (ANGSTROEM)
---------------------------------
  C     -2.129771   -1.930523    1.307164
  C     -0.781851   -1.601619    1.216954
  C     -0.347237   -0.340842    0.781843
  C     -1.327892    0.609209    0.421803
  C     -2.683473    0.266212    0.514763
  C     -3.088217   -0.989350    0.953544
  H     -2.427522   -2.919175    1.645649
  H     -0.040887   -2.352813    1.482338
  H     -3.433001    0.998477    0.234135
  H     -4.146707   -1.228283    1.012476
  B      1.215059   -0.006141    0.699542
  H      1.690585   -1.023946   -0.020022
  C      2.031630    0.028699    2.117036
  C      1.604756   -0.404384    3.382613
  C      2.336197    0.263065    4.369107
  H      0.830529   -1.142114    3.542167
  C      3.192087    1.128776    3.700727
  H      2.273367    0.137841    5.440846
  H      3.931467    1.814428    4.094136
  H      1.587576    0.884598   -0.008485
  B      2.527788   -1.365424    0.928750
  O      3.845996   -1.232164    0.481500
  O      2.282297   -2.651592    1.415565
  C      4.596686   -2.218725    1.215011
  C      3.536501   -3.360914    1.445034
  C      5.810297   -2.628019    0.390353
  H      6.484295   -1.774079    0.281629
  H      6.360899   -3.429375    0.894576
  H      5.530783   -2.969332   -0.607472
  C      5.060970   -1.563497    2.517085
  H      5.620205   -0.657289    2.267388
  H      4.215967   -1.277153    3.146984
  H      5.713843   -2.223461    3.093981
  C      3.645522   -4.054623    2.799009
  H      2.881296   -4.832956    2.874097
  H      4.625168   -4.526629    2.926648
  H      3.483146   -3.346192    3.613179
  C      3.528331   -4.405446    0.326681
  H      4.436703   -5.017218    0.350133
  H      2.671460   -5.070667    0.460115
  H      3.449389   -3.940140   -0.659113
  N      3.009468    1.001221    2.373298
  C      3.700495    1.792227    1.373050
  H      4.130970    1.128908    0.622137
  H      3.008965    2.488949    0.891829
  H      4.494728    2.356466    1.864883
  C     -1.020214    2.133433   -1.511777
  C     -1.065490    3.033569    0.906423
  C     -0.083649    3.300294   -1.876286
  C     -0.140090    4.175417    0.444718
  C     -0.316418    4.540515   -1.023396
  H     -0.202104    3.529726   -2.942012
  H      0.950399    2.961254   -1.729958
  H     -0.305264    5.047382    1.088899
  H      0.897530    3.851208    0.601714
  H      0.390904    5.329617   -1.302790
  H     -1.318376    4.950867   -1.201851
  N     -0.930967    1.906491   -0.047506
  C     -0.510587    0.886670   -2.252037
  H      0.489079    0.609365   -1.911255
  H     -1.173295    0.029212   -2.108956
  H     -0.461616    1.099633   -3.324723
  C     -2.440258    2.419772   -2.054479
  H     -2.404635    2.506046   -3.145954
  H     -3.124431    1.601843   -1.815232
  H     -2.869128    3.346477   -1.669290
  C     -2.503401    3.574434    1.090479
  H     -3.178951    2.784120    1.427587
  H     -2.509640    4.357270    1.856643
  H     -2.917427    4.008358    0.178716
  C     -0.577122    2.586061    2.292406
  H      0.443827    2.198502    2.245342
  H     -0.588723    3.443714    2.973068
  H     -1.214802    1.807978    2.719893

----------------------------
CARTESIAN COORDINATES (A.U.)
----------------------------
  NO LB      ZA    FRAG     MASS         X           Y           Z
   0 C     6.0000    0    12.011   -4.024684   -3.648160    2.470181
   1 C     6.0000    0    12.011   -1.477484   -3.026621    2.299710
   2 C     6.0000    0    12.011   -0.656184   -0.644099    1.477469
   3 C     6.0000    0    12.011   -2.509353    1.151238    0.797092
   4 C     6.0000    0    12.011   -5.071030    0.503069    0.972761
   5 C     6.0000    0    12.011   -5.835884   -1.869601    1.801936
   6 H     1.0000    0     1.008   -4.587351   -5.516442    3.109827
   7 H     1.0000    0     1.008   -0.077265   -4.446172    2.801212
   8 H     1.0000    0     1.008   -6.487432    1.886848    0.442452
   9 H     1.0000    0     1.008   -7.836141   -2.321119    1.913302
  10 B     5.0000    0    10.810    2.296128   -0.011605    1.321943
  11 H     1.0000    0     1.008    3.194743   -1.934977   -0.037835
  12 C     6.0000    0    12.011    3.839224    0.054233    4.000617
  13 C     6.0000    0    12.011    3.032549   -0.764175    6.392212
  14 C     6.0000    0    12.011    4.414773    0.497121    8.256416
  15 H     1.0000    0     1.008    1.569472   -2.158284    6.693725
  16 C     6.0000    0    12.011    6.032171    2.133078    6.993361
  17 H     1.0000    0     1.008    4.296042    0.260482   10.281709
  18 H     1.0000    0     1.008    7.429397    3.428772    7.736795
  19 H     1.0000    0     1.008    3.000084    1.671649   -0.016034
  20 B     5.0000    0    10.810    4.776828   -2.580277    1.755083
  21 O     8.0000    0    15.999    7.267879   -2.328452    0.909903
  22 O     8.0000    0    15.999    4.312915   -5.010783    2.675029
  23 C     6.0000    0    12.011    8.686477   -4.192782    2.296039
  24 C     6.0000    0    12.011    6.683019   -6.351207    2.730718
  25 C     6.0000    0    12.011   10.979870   -4.966236    0.737660
  26 H     1.0000    0     1.008   12.253541   -3.352523    0.532202
  27 H     1.0000    0     1.008   12.020356   -6.480580    1.690503
  28 H     1.0000    0     1.008   10.451664   -5.611225   -1.147955
  29 C     6.0000    0    12.011    9.563848   -2.954581    4.756601
  30 H     1.0000    0     1.008   10.620649   -1.242096    4.284742
  31 H     1.0000    0     1.008    7.967024   -2.413470    5.946937
  32 H     1.0000    0     1.008   10.797599   -4.201733    5.846776
  33 C     6.0000    0    12.011    6.889037   -7.662126    5.289360
  34 H     1.0000    0     1.008    5.444861   -9.132964    5.431256
  35 H     1.0000    0     1.008    8.740301   -8.554089    5.530563
  36 H     1.0000    0     1.008    6.582193   -6.323387    6.827918
  37 C     6.0000    0    12.011    6.667579   -8.325086    0.617338
  38 H     1.0000    0     1.008    8.384154   -9.481168    0.661656
  39 H     1.0000    0     1.008    5.048327   -9.582172    0.869492
  40 H     1.0000    0     1.008    6.518401   -7.445785   -1.245543
  41 N     7.0000    0    14.007    5.687071    1.892034    4.484884
  42 C     6.0000    0    12.011    6.992921    3.386817    2.594689
  43 H     1.0000    0     1.008    7.806402    2.133327    1.175668
  44 H     1.0000    0     1.008    5.686120    4.703432    1.685313
  45 H     1.0000    0     1.008    8.493806    4.453075    3.524119
  46 C     6.0000    0    12.011   -1.927924    4.031605   -2.856844
  47 C     6.0000    0    12.011   -2.013484    5.732616    1.712892
  48 C     6.0000    0    12.011   -0.158074    6.236652   -3.545666
  49 C     6.0000    0    12.011   -0.264732    7.890396    0.840395
  50 C     6.0000    0    12.011   -0.597944    8.580331   -1.933939
  51 H     1.0000    0     1.008   -0.381922    6.670215   -5.559596
  52 H     1.0000    0     1.008    1.795994    5.595959   -3.269147
  53 H     1.0000    0     1.008   -0.576866    9.538170    2.057721
  54 H     1.0000    0     1.008    1.696085    7.277728    1.137075
  55 H     1.0000    0     1.008    0.738702   10.071516   -2.461917
  56 H     1.0000    0     1.008   -2.491369    9.355783   -2.271168
  57 N     7.0000    0    14.007   -1.759273    3.602746   -0.089773
  58 C     6.0000    0    12.011   -0.964869    1.675564   -4.255734
  59 H     1.0000    0     1.008    0.924226    1.151533   -3.611749
  60 H     1.0000    0     1.008   -2.217207    0.055202   -3.985349
  61 H     1.0000    0     1.008   -0.872328    2.078005   -6.282817
  62 C     6.0000    0    12.011   -4.611420    4.572707   -3.882403
  63 H     1.0000    0     1.008   -4.544102    4.735740   -5.944992
  64 H     1.0000    0     1.008   -5.904319    3.027045   -3.430291
  65 H     1.0000    0     1.008   -5.421865    6.323924   -3.154502
  66 C     6.0000    0    12.011   -4.730742    6.754701    2.060707
  67 H     1.0000    0     1.008   -6.007347    5.261224    2.697748
  68 H     1.0000    0     1.008   -4.742532    8.234047    3.508546
  69 H     1.0000    0     1.008   -5.513138    7.574699    0.337724
  70 C     6.0000    0    12.011   -1.090603    4.886947    4.332019
  71 H     1.0000    0     1.008    0.838711    4.154566    4.243081
  72 H     1.0000    0     1.008   -1.112526    6.507677    5.618285
  73 H     1.0000    0     1.008   -2.295644    3.416583    5.139853

--------------------------------
INTERNAL COORDINATES (ANGSTROEM)
--------------------------------
 C      0   0   0     0.000000000000     0.00000000     0.00000000
 C      1   0   0     1.390397455075     0.00000000     0.00000000
 C      2   1   0     1.402771562772   122.21465451     0.00000000
 C      3   2   1     1.412058704378   117.94521360   359.67614420
 C      4   3   2     1.401388064371   119.35355824     0.22153331
 C      1   2   3     1.389054080570   119.48013513     0.20541348
 H      1   2   3     1.086582777155   120.07270362   179.79745018
 H      2   1   3     1.088001655234   118.75567526   180.72161642
 H      5   4   3     1.084783388046   119.07697835   180.18548687
 H      6   1   2     1.086721742460   120.61687914   179.70978523
 B      3   2   1     1.599864944468   120.43327649   179.76882014
 H     11   3   2     1.334100288839   102.48651174    52.06958452
 C     11   3   2     1.636242513472   116.56565432   294.63747780
 C     13  11   3     1.404089631533   128.50322769    11.37535414
 C     14  13  11     1.397736215694   109.25485133   203.51439793
 H     14  13  11     1.081263484586   124.13495640    23.64305225
 C     15  14  13     1.388789055751   106.29015333     1.29939757
 H     15  14  13     1.080857803747   127.88527174   181.97944165
 H     17  15  14     1.082391409570   129.86136887   180.84378738
 H     11   3   2     1.197283881907   119.33351491   158.70304816
 B     12  11   3     1.310604321625    92.06385741   237.49962161
 O     21  12  11     1.398378543622   110.23091912   243.16107119
 O     21  12  11     1.396954967531   112.32767819   118.29106123
 C     22  21  12     1.440443324933   105.25627666   209.35531952
 C     23  21  12     1.441192252572   107.89884808   131.40598093
 C     24  22  21     1.523297458273   108.87779370   153.00822758
 H     26  24  22     1.093301053488   109.57990487    65.28479491
 H     26  24  22     1.095250763257   110.35751330   183.96493045
 H     26  24  22     1.090998185422   112.02886501   305.25890375
 C     24  22  21     1.529797182765   107.35193363   271.48052108
 H     30  24  22     1.093757481183   108.40506590   304.38012214
 H     30  24  22     1.092151380981   111.61554689    63.28234947
 H     30  24  22     1.092979738732   111.83363825   184.94953240
 C     25  23  21     1.525242580932   107.71044582   133.33047684
 H     34  25  23     1.093381042047   109.55862071    66.47139367
 H     34  25  23     1.094892469064   111.31604981   185.96571123
 H     34  25  23     1.091380963871   110.87736861   307.52229865
 C     25  23  21     1.530302730413   108.44254209   252.09915387
 H     38  25  23     1.095424831096   111.16934681   183.76304500
 H     38  25  23     1.092956114428   109.29331560   302.77835247
 H     38  25  23     1.092945733518   111.65091368    62.46876015
 N     17  15  14     1.345989345768   109.38673410   359.63987371
 C     42  17  15     1.450414746390   124.31873103   177.46890123
 H     43  42  17     1.090491612231   109.34292219   129.57224952
 H     43  42  17     1.093256171790   110.47191845   250.18084432
 H     43  42  17     1.091363003492   108.53537384     9.90354797
 C      4   3   2     2.481261037132   121.72774174   218.77263479
 C      4   3   2     2.486209178527   122.21356856   143.24672372
 C     47   4   3     1.539994629070   136.49513976   293.51746986
 C     48   4   3     1.540569068372   136.69624937    66.64863018
 C     50  48   4     1.523071893935   113.39154053    66.07590528
 H     49  47   4     1.096559200374   108.83700713   168.43007094
 H     49  47   4     1.098005745611   107.89237353    52.41393189
 H     50  48   4     1.096619410805   108.83352060   190.12314567
 H     50  48   4     1.098368992500   107.80916528   305.89312790
 H     51  50  48     1.095923109736   110.09761220   182.09018585
 H     51  50  48     1.097339250544   110.61613203    65.05043862
 N      4   3   2     1.435528035713   119.95702675   180.88419369
 C     47   4   3     1.536920102223    85.30422890    43.95817715
 H     59  47   4     1.091953539190   111.05463102   285.99347670
 H     59  47   4     1.093110475709   111.85471095    47.19360908
 H     59  47   4     1.094717561471   109.20700196   166.60727331
 C     47   4   3     1.546946513923   105.85851964   149.89237468
 H     63  47   4     1.095458556449   109.52830580   215.56254468
 H     63  47   4     1.092858344982   111.06013260   333.90492972
 H     63  47   4     1.091366215713   113.20870726    95.85303298
 C     48   4   3     1.547255366036   105.42463869   209.69511130
 H     67  48   4     1.092980258043   110.99754349    26.48580618
 H     67  48   4     1.095389589865   109.77438409   144.95129484
 H     67  48   4     1.091338683884   113.08963101   264.79020184
 C     48   4   3     1.536136037174    85.71891662   316.01384783
 H     71  48   4     1.093047861017   111.18578428    75.76878667
 H     71  48   4     1.094990835015   109.22675397   195.25783269
 H     71  48   4     1.093066728357   112.00975582   314.80287740

---------------------------
INTERNAL COORDINATES (A.U.)
---------------------------
 C      0   0   0     0.000000000000     0.00000000     0.00000000
 C      1   0   0     2.627470407392     0.00000000     0.00000000
 C      2   1   0     2.650854082092   122.21465451     0.00000000
 C      3   2   1     2.668404236295   117.94521360   359.67614420
 C      4   3   2     2.648239649006   119.35355824     0.22153331
 C      1   2   3     2.624931797484   119.48013513     0.20541348
 H      1   2   3     2.053343870659   120.07270362   179.79745018
 H      2   1   3     2.056025161646   118.75567526   180.72161642
 H      5   4   3     2.049943518034   119.07697835   180.18548687
 H      6   1   2     2.053606477027   120.61687914   179.70978523
 B      3   2   1     3.023306596306   120.43327649   179.76882014
 H     11   3   2     2.521084181090   102.48651174    52.06958452
 C     11   3   2     3.092050239141   116.56565432   294.63747780
 C     13  11   3     2.653344871075   128.50322769    11.37535414
 C     14  13  11     2.641338655125   109.25485133   203.51439793
 H     14  13  11     2.043291864476   124.13495640    23.64305225
 C     15  14  13     2.624430973157   106.29015333     1.29939757
 H     15  14  13     2.042525238793   127.88527174   181.97944165
 H     17  15  14     2.045423333797   129.86136887   180.84378738
 H     11   3   2     2.262538641362   119.33351491   158.70304816
 B     12  11   3     2.476683237806    92.06385741   237.49962161
 O     21  12  11     2.642552478998   110.23091912   243.16107119
 O     21  12  11     2.639862310055   112.32767819   118.29106123
 C     22  21  12     2.722043395559   105.25627666   209.35531952
 C     23  21  12     2.723458663691   107.89884808   131.40598093
 C     24  22  21     2.878615016634   108.87779370   153.00822758
 H     26  24  22     2.066039573021   109.57990487    65.28479491
 H     26  24  22     2.069723990525   110.35751330   183.96493045
 H     26  24  22     2.061687783053   112.02886501   305.25890375
 C     24  22  21     2.890897715871   107.35193363   271.48052108
 H     30  24  22     2.066902096363   108.40506590   304.38012214
 H     30  24  22     2.063867006837   111.61554689    63.28234947
 H     30  24  22     2.065432376127   111.83363825   184.94953240
 C     25  23  21     2.882290765757   107.71044582   133.33047684
 H     34  25  23     2.066190729490   109.55862071    66.47139367
 H     34  25  23     2.069046912625   111.31604981   185.96571123
 H     34  25  23     2.062411129491   110.87736861   307.52229865
 C     25  23  21     2.891853062473   108.44254209   252.09915387
 H     38  25  23     2.070052931068   111.16934681   183.76304500
 H     38  25  23     2.065387732664   109.29331560   302.77835247
 H     38  25  23     2.065368115586   111.65091368    62.46876015
 N     17  15  14     2.543551242678   109.38673410   359.63987371
 C     42  17  15     2.740886651277   124.31873103   177.46890123
 H     43  42  17     2.060730498455   109.34292219   129.57224952
 H     43  42  17     2.065954758901   110.47191845   250.18084432
 H     43  42  17     2.062377189293   108.53537384     9.90354797
 C      4   3   2     4.688903826948   121.72774174   218.77263479
 C      4   3   2     4.698254459058   122.21356856   143.24672372
 C     47   4   3     2.910168096653   136.49513976   293.51746986
 C     48   4   3     2.911253629613   136.69624937    66.64863018
 C     50  48   4     2.878188761810   113.39154053    66.07590528
 H     49  47   4     2.072196578338   108.83700713   168.43007094
 H     49  47   4     2.074930152676   107.89237353    52.41393189
 H     50  48   4     2.072310359564   108.83352060   190.12314567
 H     50  48   4     2.075616589816   107.80916528   305.89312790
 H     51  50  48     2.070994541237   110.09761220   182.09018585
 H     51  50  48     2.073670659530   110.61613203    65.05043862
 N      4   3   2     2.712754845064   119.95702675   180.88419369
 C     47   4   3     2.904358082919    85.30422890    43.95817715
 H     59  47   4     2.063493140035   111.05463102   285.99347670
 H     59  47   4     2.065679433210   111.85471095    47.19360908
 H     59  47   4     2.068716385175   109.20700196   166.60727331
 C     47   4   3     2.923305255139   105.85851964   149.89237468
 H     63  47   4     2.070116662750   109.52830580   215.56254468
 H     63  47   4     2.065202975186   111.06013260   333.90492972
 H     63  47   4     2.062383259511   113.20870726    95.85303298
 C     48   4   3     2.923888901048   105.42463869   209.69511130
 H     67  48   4     2.065433357484   110.99754349    26.48580618
 H     67  48   4     2.069986334794   109.77438409   144.95129484
 H     67  48   4     2.062331231895   113.08963101   264.79020184
 C     48   4   3     2.902876414705    85.71891662   316.01384783
 H     71  48   4     2.065561108590   111.18578428    75.76878667
 H     71  48   4     2.069232797331   109.22675397   195.25783269
 H     71  48   4     2.065596762696   112.00975582   314.80287740

---------------------
BASIS SET INFORMATION
---------------------
There are 5 groups of distinct atoms

 Group   1 Type C   : 10s4p1d contracted to 3s2p1d pattern {631/31/1}
 Group   2 Type H   : 4s1p contracted to 2s1p pattern {31/1}
 Group   3 Type B   : 10s4p1d contracted to 3s2p1d pattern {631/31/1}
 Group   4 Type O   : 10s4p1d contracted to 3s2p1d pattern {631/31/1}
 Group   5 Type N   : 10s4p1d contracted to 3s2p1d pattern {631/31/1}

Atom   0C    basis set group =>   1
Atom   1C    basis set group =>   1
Atom   2C    basis set group =>   1
Atom   3C    basis set group =>   1
Atom   4C    basis set group =>   1
Atom   5C    basis set group =>   1
Atom   6H    basis set group =>   2
Atom   7H    basis set group =>   2
Atom   8H    basis set group =>   2
Atom   9H    basis set group =>   2
Atom  10B    basis set group =>   3
Atom  11H    basis set group =>   2
Atom  12C    basis set group =>   1
Atom  13C    basis set group =>   1
Atom  14C    basis set group =>   1
Atom  15H    basis set group =>   2
Atom  16C    basis set group =>   1
Atom  17H    basis set group =>   2
Atom  18H    basis set group =>   2
Atom  19H    basis set group =>   2
Atom  20B    basis set group =>   3
Atom  21O    basis set group =>   4
Atom  22O    basis set group =>   4
Atom  23C    basis set group =>   1
Atom  24C    basis set group =>   1
Atom  25C    basis set group =>   1
Atom  26H    basis set group =>   2
Atom  27H    basis set group =>   2
Atom  28H    basis set group =>   2
Atom  29C    basis set group =>   1
Atom  30H    basis set group =>   2
Atom  31H    basis set group =>   2
Atom  32H    basis set group =>   2
Atom  33C    basis set group =>   1
Atom  34H    basis set group =>   2
Atom  35H    basis set group =>   2
Atom  36H    basis set group =>   2
Atom  37C    basis set group =>   1
Atom  38H    basis set group =>   2
Atom  39H    basis set group =>   2
Atom  40H    basis set group =>   2
Atom  41N    basis set group =>   5
Atom  42C    basis set group =>   1
Atom  43H    basis set group =>   2
Atom  44H    basis set group =>   2
Atom  45H    basis set group =>   2
Atom  46C    basis set group =>   1
Atom  47C    basis set group =>   1
Atom  48C    basis set group =>   1
Atom  49C    basis set group =>   1
Atom  50C    basis set group =>   1
Atom  51H    basis set group =>   2
Atom  52H    basis set group =>   2
Atom  53H    basis set group =>   2
Atom  54H    basis set group =>   2
Atom  55H    basis set group =>   2
Atom  56H    basis set group =>   2
Atom  57N    basis set group =>   5
Atom  58C    basis set group =>   1
Atom  59H    basis set group =>   2
Atom  60H    basis set group =>   2
Atom  61H    basis set group =>   2
Atom  62C    basis set group =>   1
Atom  63H    basis set group =>   2
Atom  64H    basis set group =>   2
Atom  65H    basis set group =>   2
Atom  66C    basis set group =>   1
Atom  67H    basis set group =>   2
Atom  68H    basis set group =>   2
Atom  69H    basis set group =>   2
Atom  70C    basis set group =>   1
Atom  71H    basis set group =>   2
Atom  72H    basis set group =>   2
Atom  73H    basis set group =>   2
---------------------------------
AUXILIARY/J BASIS SET INFORMATION
---------------------------------
There are 5 groups of distinct atoms

 Group   1 Type C   : 12s5p4d2f1g contracted to 6s4p3d1f1g pattern {711111/2111/211/2/1}
 Group   2 Type H   : 5s2p1d contracted to 3s1p1d pattern {311/2/1}
 Group   3 Type B   : 12s5p4d2f1g contracted to 6s4p3d1f1g pattern {711111/2111/211/2/1}
 Group   4 Type O   : 12s5p4d2f1g contracted to 6s4p3d1f1g pattern {711111/2111/211/2/1}
 Group   5 Type N   : 12s5p4d2f1g contracted to 6s4p3d1f1g pattern {711111/2111/211/2/1}

Atom   0C    basis set group =>   1
Atom   1C    basis set group =>   1
Atom   2C    basis set group =>   1
Atom   3C    basis set group =>   1
Atom   4C    basis set group =>   1
Atom   5C    basis set group =>   1
Atom   6H    basis set group =>   2
Atom   7H    basis set group =>   2
Atom   8H    basis set group =>   2
Atom   9H    basis set group =>   2
Atom  10B    basis set group =>   3
Atom  11H    basis set group =>   2
Atom  12C    basis set group =>   1
Atom  13C    basis set group =>   1
Atom  14C    basis set group =>   1
Atom  15H    basis set group =>   2
Atom  16C    basis set group =>   1
Atom  17H    basis set group =>   2
Atom  18H    basis set group =>   2
Atom  19H    basis set group =>   2
Atom  20B    basis set group =>   3
Atom  21O    basis set group =>   4
Atom  22O    basis set group =>   4
Atom  23C    basis set group =>   1
Atom  24C    basis set group =>   1
Atom  25C    basis set group =>   1
Atom  26H    basis set group =>   2
Atom  27H    basis set group =>   2
Atom  28H    basis set group =>   2
Atom  29C    basis set group =>   1
Atom  30H    basis set group =>   2
Atom  31H    basis set group =>   2
Atom  32H    basis set group =>   2
Atom  33C    basis set group =>   1
Atom  34H    basis set group =>   2
Atom  35H    basis set group =>   2
Atom  36H    basis set group =>   2
Atom  37C    basis set group =>   1
Atom  38H    basis set group =>   2
Atom  39H    basis set group =>   2
Atom  40H    basis set group =>   2
Atom  41N    basis set group =>   5
Atom  42C    basis set group =>   1
Atom  43H    basis set group =>   2
Atom  44H    basis set group =>   2
Atom  45H    basis set group =>   2
Atom  46C    basis set group =>   1
Atom  47C    basis set group =>   1
Atom  48C    basis set group =>   1
Atom  49C    basis set group =>   1
Atom  50C    basis set group =>   1
Atom  51H    basis set group =>   2
Atom  52H    basis set group =>   2
Atom  53H    basis set group =>   2
Atom  54H    basis set group =>   2
Atom  55H    basis set group =>   2
Atom  56H    basis set group =>   2
Atom  57N    basis set group =>   5
Atom  58C    basis set group =>   1
Atom  59H    basis set group =>   2
Atom  60H    basis set group =>   2
Atom  61H    basis set group =>   2
Atom  62C    basis set group =>   1
Atom  63H    basis set group =>   2
Atom  64H    basis set group =>   2
Atom  65H    basis set group =>   2
Atom  66C    basis set group =>   1
Atom  67H    basis set group =>   2
Atom  68H    basis set group =>   2
Atom  69H    basis set group =>   2
Atom  70C    basis set group =>   1
Atom  71H    basis set group =>   2
Atom  72H    basis set group =>   2
Atom  73H    basis set group =>   2


           ************************************************************
           *        Program running with 24 parallel MPI-processes    *
           *              working on a common directory               *
           ************************************************************
------------------------------------------------------------------------------
                             ORCA STARTUP CALCULATIONS
                           -- RI-GTO INTEGRALS CHOSEN --
------------------------------------------------------------------------------
------------------------------------------------------------------------------
                   ___                                                        
                  /   \      - P O W E R E D   B Y -                         
                 /     \                                                     
                 |  |  |   _    _      __       _____    __    __             
                 |  |  |  | |  | |    /  \     |  _  \  |  |  /  |          
                  \  \/   | |  | |   /    \    | | | |  |  | /  /          
                 / \  \   | |__| |  /  /\  \   | |_| |  |  |/  /          
                |  |  |   |  __  | /  /__\  \  |    /   |      \           
                |  |  |   | |  | | |   __   |  |    \   |  |\   \          
                \     /   | |  | | |  |  |  |  | |\  \  |  | \   \       
                 \___/    |_|  |_| |__|  |__|  |_| \__\ |__|  \__/        
                                                                              
                      - O R C A' S   B I G   F R I E N D -                    
                                      &                                       
                       - I N T E G R A L  F E E D E R -                       
                                                                              
 v1 FN, 2020, v2 2021, v3 2022-2024                                           
------------------------------------------------------------------------------


----------------------
SHARK INTEGRAL PACKAGE
----------------------

Number of atoms                             ...     74
Number of basis functions                   ...    658
Number of shells                            ...    318
Maximum angular momentum                    ...      2
Integral batch strategy                     ... SHARK/LIBINT Hybrid
RI-J (if used) integral strategy            ... SPLIT-RIJ (Revised 2003 algorithm where possible)
Printlevel                                  ...      1
Contraction scheme used                     ... SEGMENTED contraction
Prescreening option                         ... SCHWARTZ
   Thresh                                   ... 2.500e-11
   Tcut                                     ... 2.500e-12
   Tpresel                                  ... 2.500e-12 
Coulomb Range Separation                    ... NOT USED
Exchange Range Separation                   ... Long Range
   Mu parameter                             ... 2.500e-01
   Scaling (regular/separated)              ... 1.957e-01 8.043e-01
Multipole approximations                    ... NOT USED
Finite Nucleus Model                        ... NOT USED
CABS basis                                  ... NOT available
Auxiliary Coulomb fitting basis             ... AVAILABLE
   # of basis functions in Aux-J            ...   2030
   # of shells in Aux-J                     ...    690
   Maximum angular momentum in Aux-J        ...      4
Auxiliary J/K fitting basis                 ... NOT available
Auxiliary Correlation fitting basis         ... NOT available
Auxiliary 'external' fitting basis          ... NOT available

Checking pre-screening integrals            ... done (  0.0 sec) Dimension = 318
Check shell pair data                       ... done (  0.0 sec)
Shell pair information
Shell pair cut-off parameter TPreSel        ...   2.5e-12
Total number of shell pairs                 ...     50721
Shell pairs after pre-screening             ...     31672
Total number of primitive shell pairs       ...    239193
Primitive shell pairs kept                  ...     83137
          la=0 lb=0:  10393 shell pairs
          la=1 lb=0:  12036 shell pairs
          la=1 lb=1:   3564 shell pairs
          la=2 lb=0:   3407 shell pairs
          la=2 lb=1:   1982 shell pairs
          la=2 lb=2:    290 shell pairs

Calculating one electron integrals          ... done (  0.1 sec)
Calculating RI/J V-Matrix + Cholesky decomp.... done (  0.3 sec)
[...]
      cause some error
  (4) All equations used are the standard statistical mechanics
      equations for an ideal gas
  (5) All vibrations are strictly harmonic

freq.      22.29  E(vib)   ...       0.56 
freq.      32.55  E(vib)   ...       0.55 
freq.      33.90  E(vib)   ...       0.55 
freq.      50.68  E(vib)   ...       0.52 
freq.      56.08  E(vib)   ...       0.52 
freq.      71.26  E(vib)   ...       0.50 
freq.      81.69  E(vib)   ...       0.48 
freq.      93.15  E(vib)   ...       0.47 
freq.     102.91  E(vib)   ...       0.46 
freq.     104.88  E(vib)   ...       0.46 
freq.     124.99  E(vib)   ...       0.43 
freq.     129.52  E(vib)   ...       0.43 
freq.     152.71  E(vib)   ...       0.40 
freq.     162.29  E(vib)   ...       0.39 
freq.     175.85  E(vib)   ...       0.38 
freq.     178.77  E(vib)   ...       0.37 
freq.     207.58  E(vib)   ...       0.34 
freq.     211.09  E(vib)   ...       0.34 
freq.     219.10  E(vib)   ...       0.33 
freq.     221.21  E(vib)   ...       0.33 
freq.     232.24  E(vib)   ...       0.32 
freq.     247.07  E(vib)   ...       0.31 
freq.     255.73  E(vib)   ...       0.30 
freq.     261.73  E(vib)   ...       0.30 
freq.     286.85  E(vib)   ...       0.27 
freq.     288.16  E(vib)   ...       0.27 
freq.     289.56  E(vib)   ...       0.27 
freq.     296.64  E(vib)   ...       0.27 
freq.     299.72  E(vib)   ...       0.26 
freq.     305.49  E(vib)   ...       0.26 
freq.     313.56  E(vib)   ...       0.25 
freq.     314.34  E(vib)   ...       0.25 
freq.     323.17  E(vib)   ...       0.25 
freq.     330.74  E(vib)   ...       0.24 
freq.     341.57  E(vib)   ...       0.23 
freq.     354.30  E(vib)   ...       0.22 
freq.     363.31  E(vib)   ...       0.22 
freq.     366.03  E(vib)   ...       0.22 
freq.     368.27  E(vib)   ...       0.21 
freq.     397.08  E(vib)   ...       0.20 
freq.     405.24  E(vib)   ...       0.19 
freq.     412.28  E(vib)   ...       0.19 
freq.     419.98  E(vib)   ...       0.18 
freq.     440.90  E(vib)   ...       0.17 
freq.     441.43  E(vib)   ...       0.17 
freq.     471.99  E(vib)   ...       0.15 
freq.     478.05  E(vib)   ...       0.15 
freq.     492.97  E(vib)   ...       0.14 
freq.     496.88  E(vib)   ...       0.14 
freq.     522.79  E(vib)   ...       0.13 
freq.     533.27  E(vib)   ...       0.13 
freq.     555.87  E(vib)   ...       0.12 
freq.     570.30  E(vib)   ...       0.11 
freq.     585.41  E(vib)   ...       0.11 
freq.     588.30  E(vib)   ...       0.10 
freq.     590.80  E(vib)   ...       0.10 
freq.     599.84  E(vib)   ...       0.10 
freq.     605.53  E(vib)   ...       0.10 
freq.     619.66  E(vib)   ...       0.09 
freq.     631.57  E(vib)   ...       0.09 
freq.     678.65  E(vib)   ...       0.08 
freq.     686.09  E(vib)   ...       0.07 
freq.     702.76  E(vib)   ...       0.07 
freq.     724.73  E(vib)   ...       0.06 
freq.     768.32  E(vib)   ...       0.06 
freq.     776.85  E(vib)   ...       0.05 
freq.     787.68  E(vib)   ...       0.05 
freq.     788.14  E(vib)   ...       0.05 
freq.     792.41  E(vib)   ...       0.05 
freq.     809.79  E(vib)   ...       0.05 
freq.     826.96  E(vib)   ...       0.04 
freq.     841.42  E(vib)   ...       0.04 
freq.     876.97  E(vib)   ...       0.04 
freq.     887.67  E(vib)   ...       0.04 
freq.     890.09  E(vib)   ...       0.04 
freq.     895.15  E(vib)   ...       0.03 
freq.     899.35  E(vib)   ...       0.03 
freq.     910.21  E(vib)   ...       0.03 
freq.     923.60  E(vib)   ...       0.03 
freq.     933.64  E(vib)   ...       0.03 
freq.     935.43  E(vib)   ...       0.03 
freq.     936.59  E(vib)   ...       0.03 
freq.     945.76  E(vib)   ...       0.03 
freq.     946.50  E(vib)   ...       0.03 
freq.     947.91  E(vib)   ...       0.03 
freq.     962.87  E(vib)   ...       0.03 
freq.     976.09  E(vib)   ...       0.03 
freq.     988.80  E(vib)   ...       0.02 
freq.     996.42  E(vib)   ...       0.02 
freq.     998.40  E(vib)   ...       0.02 
freq.     999.17  E(vib)   ...       0.02 
freq.    1016.24  E(vib)   ...       0.02 
freq.    1017.11  E(vib)   ...       0.02 
freq.    1020.38  E(vib)   ...       0.02 
freq.    1026.22  E(vib)   ...       0.02 
freq.    1027.44  E(vib)   ...       0.02 
freq.    1032.90  E(vib)   ...       0.02 
freq.    1059.11  E(vib)   ...       0.02 
freq.    1075.95  E(vib)   ...       0.02 
freq.    1086.44  E(vib)   ...       0.02 
freq.    1088.31  E(vib)   ...       0.02 
freq.    1091.02  E(vib)   ...       0.02 
freq.    1096.91  E(vib)   ...       0.02 
freq.    1115.86  E(vib)   ...       0.01 
freq.    1117.52  E(vib)   ...       0.01 
freq.    1129.73  E(vib)   ...       0.01 
freq.    1135.79  E(vib)   ...       0.01 
freq.    1141.19  E(vib)   ...       0.01 
freq.    1156.69  E(vib)   ...       0.01 
freq.    1160.85  E(vib)   ...       0.01 
freq.    1187.04  E(vib)   ...       0.01 
freq.    1193.37  E(vib)   ...       0.01 
freq.    1194.17  E(vib)   ...       0.01 
freq.    1205.71  E(vib)   ...       0.01 
freq.    1220.81  E(vib)   ...       0.01 
freq.    1224.70  E(vib)   ...       0.01 
freq.    1236.69  E(vib)   ...       0.01 
freq.    1243.60  E(vib)   ...       0.01 
freq.    1249.90  E(vib)   ...       0.01 
freq.    1254.31  E(vib)   ...       0.01 
freq.    1266.39  E(vib)   ...       0.01 
freq.    1268.25  E(vib)   ...       0.01 
freq.    1272.71  E(vib)   ...       0.01 
freq.    1280.07  E(vib)   ...       0.01 
freq.    1287.20  E(vib)   ...       0.01 
freq.    1308.17  E(vib)   ...       0.01 
freq.    1309.72  E(vib)   ...       0.01 
freq.    1320.50  E(vib)   ...       0.01 
freq.    1322.19  E(vib)   ...       0.01 
freq.    1332.81  E(vib)   ...       0.01 
freq.    1333.61  E(vib)   ...       0.01 
freq.    1343.83  E(vib)   ...       0.01 
freq.    1384.90  E(vib)   ...       0.00 
freq.    1404.36  E(vib)   ...       0.00 
freq.    1406.21  E(vib)   ...       0.00 
freq.    1411.56  E(vib)   ...       0.00 
freq.    1418.44  E(vib)   ...       0.00 
freq.    1419.60  E(vib)   ...       0.00 
freq.    1421.44  E(vib)   ...       0.00 
freq.    1422.33  E(vib)   ...       0.00 
freq.    1429.13  E(vib)   ...       0.00 
freq.    1429.69  E(vib)   ...       0.00 
freq.    1436.16  E(vib)   ...       0.00 
freq.    1438.38  E(vib)   ...       0.00 
freq.    1457.86  E(vib)   ...       0.00 
freq.    1482.90  E(vib)   ...       0.00 
freq.    1487.82  E(vib)   ...       0.00 
freq.    1488.84  E(vib)   ...       0.00 
freq.    1491.27  E(vib)   ...       0.00 
freq.    1491.46  E(vib)   ...       0.00 
freq.    1492.85  E(vib)   ...       0.00 
freq.    1494.54  E(vib)   ...       0.00 
freq.    1494.57  E(vib)   ...       0.00 
freq.    1499.96  E(vib)   ...       0.00 
freq.    1501.32  E(vib)   ...       0.00 
freq.    1501.44  E(vib)   ...       0.00 
freq.    1504.33  E(vib)   ...       0.00 
freq.    1509.67  E(vib)   ...       0.00 
freq.    1514.82  E(vib)   ...       0.00 
freq.    1517.37  E(vib)   ...       0.00 
freq.    1517.76  E(vib)   ...       0.00 
freq.    1518.59  E(vib)   ...       0.00 
freq.    1522.01  E(vib)   ...       0.00 
freq.    1522.69  E(vib)   ...       0.00 
freq.    1523.49  E(vib)   ...       0.00 
freq.    1530.66  E(vib)   ...       0.00 
freq.    1535.33  E(vib)   ...       0.00 
freq.    1536.91  E(vib)   ...       0.00 
freq.    1545.31  E(vib)   ...       0.00 
freq.    1548.34  E(vib)   ...       0.00 
freq.    1613.69  E(vib)   ...       0.00 
freq.    1655.52  E(vib)   ...       0.00 
freq.    1686.23  E(vib)   ...       0.00 
freq.    1716.73  E(vib)   ...       0.00 
freq.    2128.24  E(vib)   ...       0.00 
freq.    2646.57  E(vib)   ...       0.00 
freq.    3055.60  E(vib)   ...       0.00 
freq.    3059.56  E(vib)   ...       0.00 
freq.    3072.34  E(vib)   ...       0.00 
freq.    3073.24  E(vib)   ...       0.00 
freq.    3077.03  E(vib)   ...       0.00 
freq.    3078.35  E(vib)   ...       0.00 
freq.    3080.65  E(vib)   ...       0.00 
freq.    3081.04  E(vib)   ...       0.00 
freq.    3083.27  E(vib)   ...       0.00 
freq.    3084.11  E(vib)   ...       0.00 
freq.    3087.18  E(vib)   ...       0.00 
freq.    3092.71  E(vib)   ...       0.00 
freq.    3109.88  E(vib)   ...       0.00 
freq.    3112.16  E(vib)   ...       0.00 
freq.    3121.71  E(vib)   ...       0.00 
freq.    3155.42  E(vib)   ...       0.00 
freq.    3158.48  E(vib)   ...       0.00 
freq.    3159.62  E(vib)   ...       0.00 
freq.    3161.39  E(vib)   ...       0.00 
freq.    3162.33  E(vib)   ...       0.00 
freq.    3162.37  E(vib)   ...       0.00 
freq.    3164.73  E(vib)   ...       0.00 
freq.    3164.84  E(vib)   ...       0.00 
freq.    3167.24  E(vib)   ...       0.00 
freq.    3171.20  E(vib)   ...       0.00 
freq.    3182.80  E(vib)   ...       0.00 
freq.    3183.50  E(vib)   ...       0.00 
freq.    3185.82  E(vib)   ...       0.00 
freq.    3186.02  E(vib)   ...       0.00 
freq.    3187.62  E(vib)   ...       0.00 
freq.    3199.07  E(vib)   ...       0.00 
freq.    3200.01  E(vib)   ...       0.00 
freq.    3200.30  E(vib)   ...       0.00 
freq.    3205.20  E(vib)   ...       0.00 
freq.    3210.90  E(vib)   ...       0.00 
freq.    3226.47  E(vib)   ...       0.00 
freq.    3246.23  E(vib)   ...       0.00 
freq.    3276.33  E(vib)   ...       0.00 
freq.    3291.29  E(vib)   ...       0.00 
freq.    3307.44  E(vib)   ...       0.00 

------------
INNER ENERGY
------------

The inner energy is: U= E(el) + E(ZPE) + E(vib) + E(rot) + E(trans)
    E(el)   - is the total energy from the electronic structure calculation
              = E(kin-el) + E(nuc-el) + E(el-el) + E(nuc-nuc)
    E(ZPE)  - the the zero temperature vibrational energy from the frequency calculation
    E(vib)  - the the finite temperature correction to E(ZPE) due to population
              of excited vibrational states
    E(rot)  - is the rotational thermal energy
    E(trans)- is the translational thermal energy

Summary of contributions to the inner energy U:
Electronic energy                ...  -1325.54701972 Eh
Zero point energy                ...      0.65725977 Eh     412.44 kcal/mol
Thermal vibrational correction   ...      0.02945325 Eh      18.48 kcal/mol
Thermal rotational correction    ...      0.00141627 Eh       0.89 kcal/mol
Thermal translational correction ...      0.00141627 Eh       0.89 kcal/mol
-----------------------------------------------------------------------
Total thermal energy                  -1324.85747416 Eh


Summary of corrections to the electronic energy:
(perhaps to be used in another calculation)
Total thermal correction                  0.03228579 Eh      20.26 kcal/mol
Non-thermal (ZPE) correction              0.65725977 Eh     412.44 kcal/mol
-----------------------------------------------------------------------
Total correction                          0.68954556 Eh     432.70 kcal/mol


--------
ENTHALPY
--------

The enthalpy is H = U + kB*T
                kB is Boltzmann's constant
Total thermal energy              ...  -1324.85747416 Eh 
Thermal Enthalpy correction       ...      0.00094421 Eh       0.59 kcal/mol
-----------------------------------------------------------------------
Total Enthalpy                    ...  -1324.85652995 Eh


Note: Only C1 symmetry has been detected, increase convergence thresholds 
      if your molecule has a higher symmetry. Symmetry factor of 1.0 is   
      used for the rotational entropy correction. 
 

Note: Rotational entropy computed according to Herzberg 
Infrared and Raman Spectra, Chapter V,1, Van Nostrand Reinhold, 1945 
Point Group:  C1, Symmetry Number:   1  
Rotational constants in cm-1:     0.007950     0.003266     0.003008 

Vibrational entropy computed according to the QRRHO of S. Grimme
Chem.Eur.J. 2012 18 9955 using a reference frequency of 100.0 cm-1


-------
ENTROPY
-------

The entropy contributions are T*S = T*(S(el)+S(vib)+S(rot)+S(trans))
     S(el)   - electronic entropy
     S(vib)  - vibrational entropy
     S(rot)  - rotational entropy
     S(trans)- translational entropy
The entropies will be listed as multiplied by the temperature to get
units of energy

Electronic entropy                ...      0.00000000 Eh      0.00 kcal/mol
Vibrational entropy               ...      0.05084998 Eh     31.91 kcal/mol
Rotational entropy                ...      0.01723682 Eh     10.82 kcal/mol
Translational entropy             ...      0.02095749 Eh     13.15 kcal/mol
-----------------------------------------------------------------------
Final entropy term                ...      0.08904428 Eh     55.88 kcal/mol

In case the symmetry of your molecule has not been determined correctly
or in case you have a reason to use a different symmetry number we print 
out the resulting rotational entropy values for sn=1,12:

 non-linear molecules -----------------------------------
|  sn= 1 | S(rot)=       0.01723682 Eh     10.82 kcal/mol|
|  sn= 2 | S(rot)=       0.01658236 Eh     10.41 kcal/mol|
|  sn= 3 | S(rot)=       0.01619953 Eh     10.17 kcal/mol|
|  sn= 4 | S(rot)=       0.01592790 Eh      9.99 kcal/mol|
|  sn= 5 | S(rot)=       0.01571722 Eh      9.86 kcal/mol|
|  sn= 6 | S(rot)=       0.01554507 Eh      9.75 kcal/mol|
|  sn= 7 | S(rot)=       0.01539952 Eh      9.66 kcal/mol|
|  sn= 8 | S(rot)=       0.01527345 Eh      9.58 kcal/mol|
|  sn= 9 | S(rot)=       0.01516224 Eh      9.51 kcal/mol|
|  sn=10 | S(rot)=       0.01506276 Eh      9.45 kcal/mol|
|  sn=11 | S(rot)=       0.01497277 Eh      9.40 kcal/mol|
|  sn=12 | S(rot)=       0.01489061 Eh      9.34 kcal/mol|
 linear molecules ---------------------------------------
|  Dinfh | S(rot)=       0.01080827 Eh      6.78 kcal/mol|
|  Cinfv | S(rot)=       0.01146273 Eh      7.19 kcal/mol|
 --------------------------------------------------------


-------------------
GIBBS FREE ENERGY
-------------------

The Gibbs free energy is G = H - T*S

Total enthalpy                    ...  -1324.85652995 Eh 
Total entropy correction          ...     -0.08904428 Eh    -55.88 kcal/mol
-----------------------------------------------------------------------
Final Gibbs free energy         ...  -1324.94557424 Eh

For completeness - the Gibbs free energy minus the electronic energy
G-E(el)                           ...      0.60144549 Eh    377.41 kcal/mol


Maximum memory used throughout the entire PROP-calculation: 702.3 MB

--------------------------------
SUGGESTED CITATIONS FOR THIS RUN
--------------------------------

Below you find a list of papers that are relevant to this ORCA run
We neither can nor want to force you to cite these papers, but we appreciate if you do
You receive ORCA, which is the product of decades of hard work by many enthusiastic individuals, for free
The only thing we kindly ask in return is that you cite our papers,
We deeply appreciate it, if you show your appreciation for ORCA by not just citing the generic ORCA reference.

Please note that relegating all ORCA citations to the supporting information does *not* help us.
SI sections are not indexed - citations you put there will not count into any citation statistics
But we need these citations in order to attract the funding resources that allow us to do what we are doing

Therefore, if you are a happy ORCA user, please consider citing a few of the papers listed below in the main body of your paper

In addition to the list printed below, the program has created the file input.bibtex that contains the list in bibtex format
You can import this file easily into all common literature databanks and citation aid programs


List of essential papers. We consider these as the minimum necessary citations

  1. Neese,F.
     Software update: the ORCA program system, version 5.0
     WIRES Comput. Molec. Sci., 2022 12(1)e1606
     doi.org/10.1002/wcms.1606

List of papers to cite with high priority. The work reported in these papers was absolutely
necessary for this run to complete.
Our perspective: the developers of density functionals and basis sets usually get cited in chemistry papers
Good! But without the algorithms to do something with them, the functionals or basis sets would not do anything.
Hence, in our opinion, the algorithm design and method developments papers are equally worthy of getting cited

  1. Neese,F.
     An improvement of the resolution of the identity approximation for the formation of the Coulomb matrix
     J. Comp. Chem., 2003 24(14)1740-1747
     doi.org/10.1002/jcc.10318
  2. Neese,F.; Wennmohs,F.; Hansen,A.; Becker,U.
     Efficient, approximate and parallel Hartree-Fock and hybrid DFT calculations. A 'chain-of-spheres' algorithm for the Hartree-Fock exchange
     Chem. Phys., 2009 356(1-3)98-109
     doi.org/10.1016/j.chemphys.2008.10.036
  3. Bykov,D.; Petrenko,T.; Izsak,R.; Kossmann,S.; Becker,U.; Valeev,E.; Neese,F.
     Efficient implementation of the analytic second derivatives of Hartree-Fock and hybrid DFT energies: a detailed analysis of different approximations
     Molec. Phys., 2015 113 1961-1977
     doi.org/10.1080/00268976.2015.1025114
  4. Helmich-Paris,B.; de Souza,B.; Neese,F.; Izsák,R.
     An improved chain of spheres for exchange algorithm
     J. Chem. Phys., 2021 155 104109
     doi.org/doi: 10.1063/5.0058766.
  5. Neese,F.
     The SHARK Integral Generation and Digestion System
     J. Comp. Chem., 2022  1-16
     doi.org/10.1002/jcc.26942
  6. Grimme,S.; Antony,J.; Ehrlich,S.; Krieg,H.
     A consistent and accurate ab initio parametrization of density functional dispersion correction (DFT-D) for the 94 elements H-Pu
     J. Chem. Phys., 2010 132 154104
     doi.org/10.1063/1.3382344

List of suggested additional citations. These are papers that are important in the 'surrounding' of 
of this run, or papers that preceded the highly important papers. If you like your results we are grateful for a citation.

  1. Izsak,R.; Neese,F.
     An overlap fitted chain of spheres exchange method
     J. Chem. Phys., 2011 135 144105
     doi.org/10.1063/1.3646921
  2. Izsak,R.; Hansen,A.; Neese,F.
     The resolution of identity and chain of spheres approximations for the LPNO-CCSD singles Fock term
     Molec. Phys., 2012 110 2413-2417
     doi.org/10.1080/00268976.2012.687466
  3. Neese,F.
     The ORCA program system
     WIRES Comput. Molec. Sci., 2012 2(1)73-78
     doi.org/10.1002/wcms.81
  4. Izsak,R.; Neese,F.; Klopper,W.
     Robust fitting techniques in the chain of spheres approximation to the Fock exchange: The role of the complementary space
     J. Chem. Phys., 2013 139 
     doi.org/10.1063/1.4819264
  5. Neese,F.
     Software update: the ORCA program system, version 4.0
     WIRES Comput. Molec. Sci., 2018 8(1)1-6
     doi.org/10.1002/wcms.1327
  6. Neese,F.; Wennmohs,F.; Becker,U.; Riplinger,C.
     The ORCA quantum chemistry program package
     J. Chem. Phys., 2020 152 Art. No. L224108
     doi.org/10.1063/5.0004608

List of optional additional citations

  1. Neese,F.
     Approximate second-order SCF convergence for spin unrestricted wavefunctions
     Chem. Phys. Lett., 2000 325(1-3)93-98
     doi.org/10.1016/s0009-2614(00)00662-x

Timings for individual modules:

Sum of individual times          ...     2669.011 sec (=  44.484 min)
Startup calculation              ...       68.044 sec (=   1.134 min)   2.5 %
SCF iterations                   ...      809.707 sec (=  13.495 min)  30.3 %
Property integrals               ...      355.375 sec (=   5.923 min)  13.3 %
SCF Response                     ...      684.226 sec (=  11.404 min)  25.6 %
Property calculations            ...      495.306 sec (=   8.255 min)  18.6 %
SCF Gradient evaluation          ...      255.293 sec (=   4.255 min)   9.6 %
Geometry relaxation              ...        1.060 sec (=   0.018 min)   0.0 %
                             ****ORCA TERMINATED NORMALLY****
TOTAL RUN TIME: 0 days 1 hours 10 minutes 22 seconds 685 msec
