
                                 *****************
                                 * O   R   C   A *
                                 *****************

                                            #,                                       
                                            ###                                      
                                            ####                                     
                                            #####                                    
                                            ######                                   
                                           ########,                                 
                                     ,,################,,,,,                         
                               ,,#################################,,                 
                          ,,##########################################,,             
                       ,#########################################, ''#####,          
                    ,#############################################,,   '####,        
                  ,##################################################,,,,####,       
                ,###########''''           ''''###############################       
              ,#####''   ,,,,##########,,,,          '''####'''          '####       
            ,##' ,,,,###########################,,,                        '##       
           ' ,,###''''                  '''############,,,                           
         ,,##''                                '''############,,,,        ,,,,,,###''
      ,#''                                            '''#######################'''  
     '                                                          ''''####''''         
             ,#######,   #######,   ,#######,      ##                                
            ,#'     '#,  ##    ##  ,#'     '#,    #''#        ,####,    ,#,          
            ##       ##  ##   ,#'  ##            #'  '#       #'       ,# #          
            ##       ##  #######   ##           ,######,      #####,      #          
            '#,     ,#'  ##    ##  '#,     ,#' ,#      #,     #,   #      #          
             '#######'   ##     ##  '#######'  #'      '#     '####' #    #          



                #########################################################
                #                        -***-                          #
                #          Department of theory and spectroscopy        #
                #                                                       #
                #                      Frank Neese                      #
                #                                                       #
                #     Directorship, Architecture, Infrastructure        #
                #                    SHARK, DRIVERS                     #
                #        Core code/Algorithms in most modules           #
                #                                                       #
                #        Max Planck Institute fuer Kohlenforschung      #
                #                Kaiser Wilhelm Platz 1                 #
                #                 D-45470 Muelheim/Ruhr                 #
                #                      Germany                          #
                #                                                       #
                #                  All rights reserved                  #
                #                        -***-                          #
                #########################################################


                         Program Version 6.1.0  -  RELEASE   -
                                (GIT: $679e74b$)
                          ($2025-06-10 18:02:51 +0200$)


 With contributions from (in alphabetic order):
[Max-Planck-Institut fuer Kohlenforschung]                               
  Daniel Aravena         : Magnetic Suceptibility                        
  Michael Atanasov       : Ab Initio Ligand Field Theory (pilot matlab implementation)
  Alexander A. Auer      : GIAO ZORA, VPT2 properties, NMR spectrum      
  Ute Becker             : All parallelization in ORCA, NUMFREQ, NUMCALC 
  Giovanni Bistoni       : ED, misc. LED, open-shell LED, HFLD           
  Dmytro Bykov           : pre 5.0 version of the SCF Hessian            
  Marcos Casanova-Páez   : Triplet and SCS-CIS(D). UHF-(DLPNO)-IP/EA/STEOM-CCSD. UHF-CVS-IP/STEOM-CCSD   
  Vijay G. Chilkuri      : MRCI spin determinant printing, contributions to CSF-ICE 
  Pauline Colinet        : FMM embedding                                 
  Dipayan Datta          : RHF DLPNO-CCSD density                        
  Achintya Kumar Dutta   : EOM-CC, STEOM-CC                              
  Nicolas Foglia         : Exact transition moments, OPA infrastructure, MCD improvements    
  Dmitry Ganyushin       : Spin-Orbit,Spin-Spin,Magnetic field MRCI      
  Miquel Garcia-Rates    : C-PCM and meta-GGA Hessian, CCSD/C-PCM, Gaussian charge scheme 
  Tiago L. C. Gouveia    : GS-ROHF, GS-ROCIS                             
  Yang Guo               : DLPNO-NEVPT2, F12-NEVPT2, CIM, IAO-localization        
  Andreas Hansen         : Spin unrestricted coupled pair/coupled cluster methods 
  Ingolf Harden          : AUTO-CI MPn and infrastructure                
  Benjamin Helmich-Paris : MC-RPA, TRAH-(SCF,CASSCF), AVAS, COSX integrals, SCF dyn. polar., MC-PDFT, srDFT 
  Lee Huntington         : MR-EOM, pCC                                   
  Robert Izsak           : Overlap fitted RIJCOSX, COSX-SCS-MP3, EOM     
  Riya Kayal             : Wick's Theorem for AUTO-CI, AUTO-CI UHF-CCSDT 
  Emily Kempfer          : AUTO-CI RHF CISDT and CCSDT, approximate NEVPT4
  Christian Kollmar      : KDIIS, OOCD, Brueckner-CCSD(T), CCSD density, CASPT2, CASPT2-K, improved NEVPT2 
  Axel Koslowski         : Symmetry handling                             
  Simone Kossmann        : meta-GGA functionals, TD-DFT gradient, OOMP2, (MP2 Hessian; deprecated post 5.0) 
  Lucas Lang             : DCDCAS, Hyperfine gauge corrections, ICE-SOC+SSC
  Marvin Lechner         : AUTO-CI (C++ implementation), FIC-MRCC        
  Spencer Leger          : CASSCF response                               
  Dagmar Lenk            : GEPOL surface, SMD, ORCA-2-JSON               
  Dimitrios Liakos       : Extrapolation schemes; Compound Job, Property file
  Dimitrios Manganas     : Further ROCIS development; embedding schemes. LFT, Crystal Embedding 
  Dimitrios Pantazis     : SARC Basis sets                               
  Anastasios Papadopoulos: AUTO-CI, single reference methods and gradients 
  Taras Petrenko         : pre 6.0 DFT Hessian and TD-DFT gradient,  ECA, NRVS 
  Petra Pikulova         : Analytic Raman intensities                    
  Peter Pinski           : DLPNO-MP2, DLPNO-MP2 Gradient                 
  Shashank Vittal Rao    : ES-AILFT, MagRelax                            
  Christoph Reimann      : Effective Core Potentials                     
  Marius Retegan         : Local ZFS, SOC                                
  Christoph Riplinger    : Optimizer, TS searches, QM/MM, DLPNO-CCSD(T), (RO)-DLPNO pert. Triples 
  Michael Roemelt        : Original ROCIS implementation, recursive CI coupling coefficients
  Masaaki Saitow         : Open-shell DLPNO-CCSD energy and density      
  Barbara Sandhoefer     : DKH picture change effects                    
  Yorick L. A. Schmerwitz: GMF and freeze-and-release deltaSCF, NEB S-IDPP initial path                    
  Kantharuban Sivalingam : CASSCF convergence/infrastructure, NEVPT2, NEVPT3, NEVPT4(SD), FIC-MRCI and CEPA variants
  Bernardo de Souza      : ESD, SOC TD-DFT                               
  Georgi L. Stoychev     : AutoAux, RI-MP2 NMR, DLPNO-MP2 response, X2C  
  Van Anh Tran           : RI-MP2 g-tensors                              
  Willem Van den Heuvel  : Paramagnetic NMR                              
  Zikuan Wang            : NOTCH, Electric field optimization            
  Frank Wennmohs         : Technical directorship and infrastructure     
  Hang Xu                : AUTO-CI-Response properties                   
                                                                         
[FACCTs GmbH]                                                            
  Markus Bursch, Nicolas Foglia, Miquel Garcia-Rates, Ingolf Harden, Hagen Neugebauer, Anastasios Papadopoulos, 
  Christoph Riplinger, Bernardo de Souza, Georgi L. Stoychev                                                    
                                                                 
  APM, various basis sets, CI-OPT, improved COSX, DLPNO-Multilevel,           
  DOCKER, DRACO, updates on ESD, Fragmentator, GOAT, IRC, LR-CPCM, L-BFGS, MBIS, meta-GGA TD-DFT gradient, ML-optimized integration grids, 
  MM, NACMEs, nearIR, NEB, NEB-TS, NL-DFT gradient (VV10), 2- and 3-layer-ONIOM, interface openCOSMO-RS, QMMM,   
  Crystal-QMMM, RESP, rigid body optimization, SF, symmetry and pop. for TD-DFT, various functionals, SOLVATOR                                   
                                                                         
[Other institutions]                                                     
  V. Asgeirsson          : NEB                                           
  Christoph Bannwarth    : sTDA-DFT, sTD-DFT, PBEh-3c, B97-3c, D3        
  Giovanni Bistoni       : ETS/NOCV, ADLD/ADEX, COVALED                  
  Martin Brehm           : Molecular dynamics                            
  Ronald Cardenas        : ETS/NOCV                                      
  Martina Colucci        : COVALED                                       
  Sebastian Ehlert       : rSCAN, r2SCAN, r2SCAN-3c, D4, dhf basis sets  
  Marvin Friede          : D4 for Fr, Ra, Ac-Lr                          
  Lars Goerigk           : TD-DFT with DH, B97 family of functionals     
  Stefan Grimme          : VdW corrections, initial TS optimization, DFT functionals, gCP, sTDA/sTD-DF 
  Waldemar Hujo          : DFT-NL                                        
  H. Jonsson             : NEB                                           
  Holger Kruse           : gCP                                           
  Marcel Mueller         : wB97X-3c, vDZP basis set                      
  Hagen Neugebauer       : wr2SCAN, Native XTB                           
  Gianluca Regni         : ADLD/ADEX                                     
  Tobias Risthaus        : pre 6.0 range-separated hybrid DFT and stability analysis
  Lukas Wittmann         : regularized MP2, r2SCAN double-hybrids, wr2SCAN        
                                                                         
We gratefully acknowledge several colleagues who have allowed us to      
interface, adapt or use parts of their codes:                            
  Ed Valeev, F. Pavosevic, A. Kumar             : LibInt (2-el integral package), F12 methods 
  Garnet Chan, S. Sharma, J. Yang, R. Olivares  : DMRG                   
  Ulf Ekstrom                                   : XCFun DFT Library      
  Mihaly Kallay                                 : mrcc  (arbitrary order and MRCC methods)
  Frank Weinhold                                : gennbo (NPA and NBO analysis)           
  Simon Mueller                                 : openCOSMO-RS                            
  Christopher J. Cramer and Donald G. Truhlar   : smd solvation model                     
  S Lehtola, MJT Oliveira, MAL Marques          : LibXC Library                           
  Liviu Ungur et al                             : ANISO software                          


 Your calculation uses the libint2 library for the computation of 2-el integrals
 For citations please refer to: http://libint.valeyev.net

 Your ORCA version has been built with support for libXC version: 7.0.0
 For citations please refer to: https://libxc.gitlab.io

 This ORCA versions uses:
   CBLAS   interface :  Fast vector & matrix operations
   LAPACKE interface :  Fast linear algebra routines
   SCALAPACK package :  Parallel linear algebra routines
   Shared memory     :  Shared parallel matrices
   BLAS/LAPACK       :  OpenBLAS 0.3.29  USE64BITINT DYNAMIC_ARCH NO_AFFINITY Haswell SINGLE_THREADED
        Core in use  :  Haswell
   Copyright (c) 2011-2014, The OpenBLAS Project


  ***********************************
  * Starting time: Wed Jul 23 16:35:41 2025
  * Host name:     node320.cluster
  * Process ID:    119958
  * Working dir.:  /scratch/53167320/_tvbdiv
  ***********************************

NOTE: MaxCore=2560 MB was set to SCF,MP2,MDCI,CIPSI,MRCI,RASCI and CIS
      => If you want to overwrite this, your respective input block should be placed after the MaxCore statement
Your calculation utilizes the atom-pairwise dispersion correction
with the zero-damping scheme (D30)


Your calculation utilizes the SMD solvation module
Please cite in your paper:
Marenich, A. V.; Cramer, C. J.; Truhlar, D. G. J. Phys. Chem. B 2009, 113, 6378 

XCFun DFT library Copyright 2009-2010 Ulf Ekstrom and contributors.
See http://admol.org/xcfun for more information.
This is free software; see the source code for copying conditions.
There is ABSOLUTELY NO WARRANTY; not even for MERCHANTABILITY or FITNESS FOR A PARTICULAR PURPOSE.
For details see the documentation.
Scientific users of this library should cite U. Ekstrom, L. Visscher, R. Bast, A. J. Thorvaldsen and K. Ruud;
J.Chem.Theor.Comp. 2010, DOI: 10.1021/ct100117s
XCFun Version 0.99 

Warning: RI is on but no J-basis has been assigned. Assigning Def2/J (nothing to worry about!)
================================================================================

----- Orbital basis set information -----
Your calculation utilizes the basis: 6-31+G**
   H-He, Li-Ne : W. J. Hehre, R. Ditchfield and J.A. Pople, J. Chem. Phys. 56, 2257 (1972).
                 Note: He and Ne are unpublished basis sets taken from the Gaussian program.
                 Note: Li and B from J. D. Dill and J. A. Pople, J. Chem. Phys. 62, 2921 (1975).
   Na - Ar     : M. M. Francl, W. J. Pietro, W. J. Hehre, J. S. Binkley, M. S. Gordon, 
                 D. J. DeFrees and J. A. Pople, J. Chem. Phys. 77, 3654 (1982).
   K - Zn      : V. A. Rassolov, J. A. Pople, M. A. Ratner, and T. L. Windus, J. Chem. Phys. 109, 1223 (1998).
   Additional Pol./Diff. from the 6-311G equivalent.

----- AuxJ basis set information -----
Your calculation utilizes the auxiliary basis: def2/J
   H-Rn: F. Weigend, Phys. Chem. Chem. Phys. 8, 1057 (2006).
   Fr-Lr: K. Eichkorn, F. Weigend, O. Treutler, R. Ahlrichs; Theor. Chem. Acc. 97, 119 (1997).

================================================================================
                                        WARNINGS
                       Please study these warnings very carefully!
================================================================================


================================================================================
                                       INPUT FILE
================================================================================
NAME = input.inp
|  1> # Automatically generated ORCA input
|  2> 
|  3> # Number of cores
|  4> %pal nprocs 12 end
|  5> # RAM per core
|  6> %maxcore 2560
|  7> 
|  8> ! wB97X-D3 
|  9> ! 6-31+G** 
| 10> ! TightSCF 
| 11> ! SP 
| 12> ! NoSym 
| 13> 
| 14> %CPCM
| 15> SMD TRUE
| 16> SMDSOLVENT "chloroform"
| 17> end
| 18> %Output
| 19>   JSONPropFile True
| 20> End
| 21> 
| 22> 
| 23> *xyz 0 1 
| 24> C         0.40718200     -2.02769800      1.00285600
| 25> C         1.38339400     -1.05160600      1.18542600
| 26> C         1.00908100      0.21419400      1.61871300
| 27> C        -0.32860600      0.49262200      1.88435600
| 28> C        -1.30565700     -0.48940900      1.70702600
| 29> C        -0.94412600     -1.76877200      1.24310500
| 30> H         0.70570400     -3.01039300      0.64264400
| 31> H         2.42567700     -1.27580700      0.97823900
| 32> H         1.75797200      0.98844800      1.76074500
| 33> H        -0.60923700      1.48141800      2.23449200
| 34> N        -2.68865400     -0.24059700      1.96672700
| 35> B        -2.05642500     -2.85760800      0.96648200
| 36> H        -2.38989500     -3.66138000      1.79326100
| 37> H        -3.13008900     -2.24363100      0.52502800
| 38> H        -1.79102600     -3.52666400     -0.12579500
| 39> C        -3.13547300      1.12811200      1.79165200
| 40> H        -4.22953200      1.14239600      1.76086700
| 41> H        -2.81867900      1.80764800      2.60234800
| 42> H        -2.76191500      1.52062600      0.84298500
| 43> C        -3.15640600     -0.80153000      3.22781200
| 44> H        -2.75858100     -0.25866800      4.10235100
| 45> H        -4.24989500     -0.75807800      3.26297200
| 46> H        -2.85493800     -1.84778800      3.31437900
| 47> B        -2.89005900     -2.91252900     -0.59514900
| 48> H        -2.51767500     -2.13032400     -1.41697600
| 49> C        -4.06912300     -3.91379700     -0.88935000
| 50> C        -4.31245900     -4.38551400     -2.20053200
| 51> C        -4.97542400     -4.27015000      0.11613400
| 52> C        -5.45396800     -5.15238800     -2.46020500
| 53> C        -6.10656100     -5.03758000     -0.14222100
| 54> H        -4.80603000     -3.90908500      1.12823600
| 55> C        -6.34592200     -5.46880100     -1.44076100
| 56> H        -5.64634300     -5.51851500     -3.46342100
| 57> H        -6.79877500     -5.28254700      0.65764900
| 58> H        -7.22561600     -6.06536000     -1.66694400
| 59> N        -3.40270700     -4.04777500     -3.23349000
| 60> C        -3.90370300     -4.07948800     -4.59140700
| 61> H        -3.20399000     -3.53916000     -5.23685400
| 62> H        -4.01431100     -5.09899200     -5.00227900
| 63> H        -4.87103600     -3.57461700     -4.64524000
| 64> C        -2.08025000     -4.64402800     -3.13747300
| 65> H        -2.07027900     -5.69317600     -3.48087500
| 66> H        -1.37331300     -4.07342900     -3.74856300
| 67> H        -1.72064500     -4.63061600     -2.10770800
| 68> *
| 69> 
| 70> 
| 71>                          ****END OF INPUT****
================================================================================

                       ****************************
                       * Single Point Calculation *
                       ****************************

---------------------------------
CARTESIAN COORDINATES (ANGSTROEM)
---------------------------------
  C      0.407182   -2.027698    1.002856
  C      1.383394   -1.051606    1.185426
  C      1.009081    0.214194    1.618713
  C     -0.328606    0.492622    1.884356
  C     -1.305657   -0.489409    1.707026
  C     -0.944126   -1.768772    1.243105
  H      0.705704   -3.010393    0.642644
  H      2.425677   -1.275807    0.978239
  H      1.757972    0.988448    1.760745
  H     -0.609237    1.481418    2.234492
  N     -2.688654   -0.240597    1.966727
  B     -2.056425   -2.857608    0.966482
  H     -2.389895   -3.661380    1.793261
  H     -3.130089   -2.243631    0.525028
  H     -1.791026   -3.526664   -0.125795
  C     -3.135473    1.128112    1.791652
  H     -4.229532    1.142396    1.760867
  H     -2.818679    1.807648    2.602348
  H     -2.761915    1.520626    0.842985
  C     -3.156406   -0.801530    3.227812
  H     -2.758581   -0.258668    4.102351
  H     -4.249895   -0.758078    3.262972
  H     -2.854938   -1.847788    3.314379
  B     -2.890059   -2.912529   -0.595149
  H     -2.517675   -2.130324   -1.416976
  C     -4.069123   -3.913797   -0.889350
  C     -4.312459   -4.385514   -2.200532
  C     -4.975424   -4.270150    0.116134
  C     -5.453968   -5.152388   -2.460205
  C     -6.106561   -5.037580   -0.142221
  H     -4.806030   -3.909085    1.128236
  C     -6.345922   -5.468801   -1.440761
  H     -5.646343   -5.518515   -3.463421
  H     -6.798775   -5.282547    0.657649
  H     -7.225616   -6.065360   -1.666944
  N     -3.402707   -4.047775   -3.233490
  C     -3.903703   -4.079488   -4.591407
  H     -3.203990   -3.539160   -5.236854
  H     -4.014311   -5.098992   -5.002279
  H     -4.871036   -3.574617   -4.645240
  C     -2.080250   -4.644028   -3.137473
  H     -2.070279   -5.693176   -3.480875
  H     -1.373313   -4.073429   -3.748563
  H     -1.720645   -4.630616   -2.107708

----------------------------
CARTESIAN COORDINATES (A.U.)
----------------------------
  NO LB      ZA    FRAG     MASS         X           Y           Z
   0 C     6.0000    0    12.011    0.769462   -3.831794    1.895123
   1 C     6.0000    0    12.011    2.614236   -1.987247    2.240130
   2 C     6.0000    0    12.011    1.906887    0.404768    3.058924
   3 C     6.0000    0    12.011   -0.620975    0.930921    3.560917
   4 C     6.0000    0    12.011   -2.467334   -0.924849    3.225812
   5 C     6.0000    0    12.011   -1.784140   -3.342495    2.349128
   6 H     1.0000    0     1.008    1.333587   -5.688818    1.214421
   7 H     1.0000    0     1.008    4.583865   -2.410926    1.848604
   8 H     1.0000    0     1.008    3.322086    1.867896    3.327326
   9 H     1.0000    0     1.008   -1.151291    2.799474    4.222578
  10 N     7.0000    0    14.007   -5.080820   -0.454662    3.716575
  11 B     5.0000    0    10.810   -3.886080   -5.400097    1.826386
  12 H     1.0000    0     1.008   -4.516247   -6.919005    3.388772
  13 H     1.0000    0     1.008   -5.915011   -4.239848    0.992159
  14 H     1.0000    0     1.008   -3.384549   -6.664429   -0.237718
  15 C     6.0000    0    12.011   -5.925185    2.131823    3.385732
  16 H     1.0000    0     1.008   -7.992657    2.158816    3.327556
  17 H     1.0000    0     1.008   -5.326531    3.415960    4.917725
  18 H     1.0000    0     1.008   -5.219263    2.873567    1.593011
  19 C     6.0000    0    12.011   -5.964743   -1.514672    6.099681
  20 H     1.0000    0     1.008   -5.212963   -0.488812    7.752320
  21 H     1.0000    0     1.008   -8.031138   -1.432560    6.166123
  22 H     1.0000    0     1.008   -5.395051   -3.491813    6.263269
  23 B     5.0000    0    10.810   -5.461420   -5.503882   -1.124669
  24 H     1.0000    0     1.008   -4.757716   -4.025729   -2.677697
  25 C     6.0000    0    12.011   -7.689528   -7.396004   -1.680628
  26 C     6.0000    0    12.011   -8.149366   -8.287420   -4.158403
  27 C     6.0000    0    12.011   -9.402189   -8.069414    0.219461
  28 C     6.0000    0    12.011  -10.306506   -9.736602   -4.649114
  29 C     6.0000    0    12.011  -11.539728   -9.519647   -0.268759
  30 H     1.0000    0     1.008   -9.082080   -7.387100    2.132057
  31 C     6.0000    0    12.011  -11.992055  -10.334536   -2.722644
  32 H     1.0000    0     1.008  -10.670042  -10.428482   -6.544917
  33 H     1.0000    0     1.008  -12.847823   -9.982567    1.242777
  34 H     1.0000    0     1.008  -13.654435  -11.461869   -3.150068
  35 N     7.0000    0    14.007   -6.430184   -7.649186   -6.110411
  36 C     6.0000    0    12.011   -7.376930   -7.709115   -8.676502
  37 H     1.0000    0     1.008   -6.054664   -6.688043   -9.896220
  38 H     1.0000    0     1.008   -7.585948   -9.635698   -9.452937
  39 H     1.0000    0     1.008   -9.204924   -6.755047   -8.778231
  40 C     6.0000    0    12.011   -3.931103   -8.775941   -5.928965
  41 H     1.0000    0     1.008   -3.912260  -10.758543   -6.577900
  42 H     1.0000    0     1.008   -2.595185   -7.697665   -7.083757
  43 H     1.0000    0     1.008   -3.251548   -8.750596   -3.982991

--------------------------------
INTERNAL COORDINATES (ANGSTROEM)
--------------------------------
 C      0   0   0     0.000000000000     0.00000000     0.00000000
 C      1   0   0     1.392507546230     0.00000000     0.00000000
 C      2   1   0     1.389279484603   119.38436270     0.00000000
 C      3   2   1     1.391939246017   120.04623622     0.89998001
 C      4   3   2     1.396588511503   120.49382643   359.40540399
 C      1   2   3     1.396708833774   121.71942357     0.05110253
 H      1   2   3     1.088373801804   118.94734776   178.69238336
 H      2   1   3     1.086069239717   120.20329586   180.78296794
 H      3   2   1     1.086498999273   120.28734304   180.33851884
 H      4   3   2     1.085848288792   119.47604687   179.23674388
 N      5   4   3     1.428997103830   122.11157277   180.12131896
 B      6   1   2     1.580915299574   121.52904996   176.93886911
 H     12   6   1     1.200339611829   122.42089818    88.62734263
 H     12   6   1     1.313241704920   108.18214838   215.81757949
 H     12   6   1     1.308106113840   110.83186936   321.18239207
 C     11   5   4     1.450400910461   116.13716913    28.71634457
 H     16  11   5     1.094585238509   108.88243260   165.38378367
 H     16  11   5     1.104244365233   113.81125750   285.17008182
 H     16  11   5     1.092511737442   109.78674853    47.07538149
 C     11   5   4     1.457317103865   113.63333570   257.17630656
 H     20  11   5     1.103531759484   112.37840750    71.28279847
 H     20  11   5     1.094916661224   109.45474916   191.73285571
 H     20  11   5     1.092260318366   110.40730916   310.64467672
 B     14  12   6     1.326587896309    84.27141052   114.95723031
 H     24  14  12     1.194116461410   107.89528389   250.67647886
 C     24  14  12     1.574574149515   110.05480499   116.15086672
 C     26  24  14     1.414541471329   120.93491014   157.32140518
 C     26  24  14     1.399773923698   120.83058292   342.92946525
 C     27  26  24     1.399488690875   119.67231782   187.18861926
 C     28  26  24     1.391102808456   122.24251541   173.06610712
 H     28  26  24     1.087847746638   118.88065964   354.99892126
 C     30  28  26     1.389046928927   119.01238363     0.14130499
 H     29  27  26     1.085126473463   120.06833702   180.07071131
 H     30  28  26     1.085799737422   120.39956867   181.03965239
 H     32  30  28     1.086693573923   120.29790677   180.29164801
 N     27  26  24     1.417292687976   119.05712093     5.99767541
 C     36  27  26     1.447736607700   117.14583918   203.25337027
 H     37  36  27     1.094602420864   108.72674053   164.28347915
 H     37  36  27     1.104734509312   113.81016908   284.02616034
 H     37  36  27     1.092486087517   110.02967510    46.20539804
 C     36  27  26     1.453832666144   115.97778645    68.05519399
 H     41  36  27     1.103963713330   112.17475087    78.96921286
 H     41  36  27     1.094885440980   109.67766710   199.49720546
 H     41  36  27     1.090830689426   110.92686493   318.60983741

---------------------------
INTERNAL COORDINATES (A.U.)
---------------------------
 C      0   0   0     0.000000000000     0.00000000     0.00000000
 C      1   0   0     2.631457901794     0.00000000     0.00000000
 C      2   1   0     2.625357749374   119.38436270     0.00000000
 C      3   2   1     2.630383970029   120.04623622     0.89998001
 C      4   3   2     2.639169808521   120.49382643   359.40540399
 C      1   2   3     2.639397184661   121.71942357     0.05110253
 H      1   2   3     2.056728416744   118.94734776   178.69238336
 H      2   1   3     2.052373425541   120.20329586   180.78296794
 H      3   2   1     2.053185553405   120.28734304   180.33851884
 H      4   3   2     2.051955888804   119.47604687   179.23674388
 N      5   4   3     2.700413172405   122.11157277   180.12131896
 B      6   1   2     2.987496957120   121.52904996   176.93886911
 H     12   6   1     2.268313134054   122.42089818    88.62734263
 H     12   6   1     2.481667169942   108.18214838   215.81757949
 H     12   6   1     2.471962309266   110.83186936   321.18239207
 C     11   5   4     2.740860505162   116.13716913    28.71634457
 H     16  11   5     2.068466331015   108.88243260   165.38378367
 H     16  11   5     2.086719435215   113.81125750   285.17008182
 H     16  11   5     2.064547981860   109.78674853    47.07538149
 C     11   5   4     2.753930216584   113.63333570   257.17630656
 H     20  11   5     2.085372805509   112.37840750    71.28279847
 H     20  11   5     2.069092629180   109.45474916   191.73285571
 H     20  11   5     2.064072868661   110.40730916   310.64467672
 B     14  12   6     2.506887816598    84.27141052   114.95723031
 H     24  14  12     2.256553084072   107.89528389   250.67647886
 C     24  14  12     2.975513920135   110.05480499   116.15086672
 C     26  24  14     2.673095985885   120.93491014   157.32140518
 C     26  24  14     2.645189365194   120.83058292   342.92946525
 C     27  26  24     2.644650353273   119.67231782   187.18861926
 C     28  26  24     2.628803332110   122.24251541   173.06610712
 H     28  26  24     2.055734316549   118.88065964   354.99892126
 C     30  28  26     2.624918282837   119.01238363     0.14130499
 H     29  27  26     2.050591855513   120.06833702   180.07071131
 H     30  28  26     2.051864140011   120.39956867   181.03965239
 H     32  30  28     2.053553246207   120.29790677   180.29164801
 N     27  26  24     2.678295031883   119.05712093     5.99767541
 C     36  27  26     2.735825702605   117.14583918   203.25337027
 H     37  36  27     2.068498800961   108.72674053   164.28347915
 H     37  36  27     2.087645673291   113.81016908   284.02616034
 H     37  36  27     2.064499510527   110.02967510    46.20539804
 C     36  27  26     2.747345583560   115.97778645    68.05519399
 H     41  36  27     2.086189079980   112.17475087    78.96921286
 H     41  36  27     2.069033631470   109.67766710   199.49720546
 H     41  36  27     2.061371261492   110.92686493   318.60983741

---------------------
BASIS SET INFORMATION
---------------------
There are 4 groups of distinct atoms

 Group   1 Type C   : 11s5p1d contracted to 4s3p1d pattern {6311/311/1}
 Group   2 Type H   : 4s1p contracted to 2s1p pattern {31/1}
 Group   3 Type N   : 11s5p1d contracted to 4s3p1d pattern {6311/311/1}
 Group   4 Type B   : 11s5p1d contracted to 4s3p1d pattern {6311/311/1}

Atom   0C    basis set group =>   1
Atom   1C    basis set group =>   1
Atom   2C    basis set group =>   1
Atom   3C    basis set group =>   1
Atom   4C    basis set group =>   1
Atom   5C    basis set group =>   1
Atom   6H    basis set group =>   2
Atom   7H    basis set group =>   2
Atom   8H    basis set group =>   2
Atom   9H    basis set group =>   2
Atom  10N    basis set group =>   3
Atom  11B    basis set group =>   4
Atom  12H    basis set group =>   2
Atom  13H    basis set group =>   2
Atom  14H    basis set group =>   2
Atom  15C    basis set group =>   1
Atom  16H    basis set group =>   2
Atom  17H    basis set group =>   2
Atom  18H    basis set group =>   2
Atom  19C    basis set group =>   1
Atom  20H    basis set group =>   2
Atom  21H    basis set group =>   2
Atom  22H    basis set group =>   2
Atom  23B    basis set group =>   4
Atom  24H    basis set group =>   2
Atom  25C    basis set group =>   1
Atom  26C    basis set group =>   1
Atom  27C    basis set group =>   1
Atom  28C    basis set group =>   1
Atom  29C    basis set group =>   1
Atom  30H    basis set group =>   2
Atom  31C    basis set group =>   1
Atom  32H    basis set group =>   2
Atom  33H    basis set group =>   2
Atom  34H    basis set group =>   2
Atom  35N    basis set group =>   3
Atom  36C    basis set group =>   1
Atom  37H    basis set group =>   2
Atom  38H    basis set group =>   2
Atom  39H    basis set group =>   2
Atom  40C    basis set group =>   1
Atom  41H    basis set group =>   2
Atom  42H    basis set group =>   2
Atom  43H    basis set group =>   2
---------------------------------
AUXILIARY/J BASIS SET INFORMATION
---------------------------------
There are 4 groups of distinct atoms

 Group   1 Type C   : 12s5p4d2f1g contracted to 6s4p3d1f1g pattern {711111/2111/211/2/1}
 Group   2 Type H   : 5s2p1d contracted to 3s1p1d pattern {311/2/1}
 Group   3 Type N   : 12s5p4d2f1g contracted to 6s4p3d1f1g pattern {711111/2111/211/2/1}
 Group   4 Type B   : 12s5p4d2f1g contracted to 6s4p3d1f1g pattern {711111/2111/211/2/1}

Atom   0C    basis set group =>   1
Atom   1C    basis set group =>   1
Atom   2C    basis set group =>   1
Atom   3C    basis set group =>   1
Atom   4C    basis set group =>   1
Atom   5C    basis set group =>   1
Atom   6H    basis set group =>   2
Atom   7H    basis set group =>   2
Atom   8H    basis set group =>   2
Atom   9H    basis set group =>   2
Atom  10N    basis set group =>   3
Atom  11B    basis set group =>   4
Atom  12H    basis set group =>   2
Atom  13H    basis set group =>   2
Atom  14H    basis set group =>   2
Atom  15C    basis set group =>   1
Atom  16H    basis set group =>   2
Atom  17H    basis set group =>   2
Atom  18H    basis set group =>   2
Atom  19C    basis set group =>   1
Atom  20H    basis set group =>   2
Atom  21H    basis set group =>   2
Atom  22H    basis set group =>   2
Atom  23B    basis set group =>   4
Atom  24H    basis set group =>   2
Atom  25C    basis set group =>   1
Atom  26C    basis set group =>   1
Atom  27C    basis set group =>   1
Atom  28C    basis set group =>   1
Atom  29C    basis set group =>   1
Atom  30H    basis set group =>   2
Atom  31C    basis set group =>   1
Atom  32H    basis set group =>   2
Atom  33H    basis set group =>   2
Atom  34H    basis set group =>   2
Atom  35N    basis set group =>   3
Atom  36C    basis set group =>   1
Atom  37H    basis set group =>   2
Atom  38H    basis set group =>   2
Atom  39H    basis set group =>   2
Atom  40C    basis set group =>   1
Atom  41H    basis set group =>   2
Atom  42H    basis set group =>   2
Atom  43H    basis set group =>   2


           ************************************************************
           *        Program running with 12 parallel MPI-processes    *
           *              working on a common directory               *
           ************************************************************
------------------------------------------------------------------------------
                             ORCA STARTUP CALCULATIONS
                           -- RI-GTO INTEGRALS CHOSEN --
------------------------------------------------------------------------------
------------------------------------------------------------------------------
                   ___                                                        
                  /   \      - P O W E R E D   B Y -                         
                 /     \                                                     
                 |  |  |   _    _      __       _____    __    __             
                 |  |  |  | |  | |    /  \     |  _  \  |  |  /  |          
                  \  \/   | |  | |   /    \    | | | |  |  | /  /          
                 / \  \   | |__| |  /  /\  \   | |_| |  |  |/  /          
                |  |  |   |  __  | /  /__\  \  |    /   |      \           
                |  |  |   | |  | | |   __   |  |    \   |  |\   \          
                \     /   | |  | | |  |  |  |  | |\  \  |  | \   \       
                 \___/    |_|  |_| |__|  |__|  |_| \__\ |__|  \__/        
                                                                              
                      - O R C A' S   B I G   F R I E N D -                    
                                      &                                       
                       - I N T E G R A L  F E E D E R -                       
                                                                              
 v1 FN, 2020, v2 2021, v3 2022-2024                                           
------------------------------------------------------------------------------


----------------------
SHARK INTEGRAL PACKAGE
----------------------

Number of atoms                             ...     44
Number of basis functions                   ...    480
Number of shells                            ...    232
Maximum angular momentum                    ...      2
Integral batch strategy                     ... SHARK/LIBINT Hybrid
RI-J (if used) integral strategy            ... SPLIT-RIJ (Revised 2003 algorithm where possible)
Printlevel                                  ...      1
Contraction scheme used                     ... SEGMENTED contraction
Prescreening option                         ... SCHWARTZ
   Thresh                                   ... 2.500e-11
   Tcut                                     ... 2.500e-12
   Tpresel                                  ... 2.500e-12 
Coulomb Range Separation                    ... NOT USED
Exchange Range Separation                   ... Long Range
   Mu parameter                             ... 2.500e-01
   Scaling (regular/separated)              ... 1.957e-01 8.043e-01
Robust (split-)RI terms used:
  metric    (central integrals)             ... YES
  density   (r.h.s.  integrals)             ... YES
  potential (l.h.s.  integrals)             ... YES
Multipole approximations                    ... NOT USED
Finite Nucleus Model                        ... NOT USED
CABS basis                                  ... NOT available
Auxiliary Coulomb fitting basis             ... AVAILABLE
   # of basis functions in Aux-J            ...   1244
   # of shells in Aux-J                     ...    420
   Maximum angular momentum in Aux-J        ...      4
Auxiliary J/K fitting basis                 ... NOT available
Auxiliary Correlation fitting basis         ... NOT available
Auxiliary 'external' fitting basis          ... NOT available

Checking pre-screening integrals            ... done (  0.0 sec) Dimension = 232
   => SHARK Basis and OBASIS are compatible. Storing Pre-screening
Shell pair information
Shell pair cut-off parameter TPreSel        ...   2.5e-12
Total number of shell pairs                 ...     27028
Shell pairs after pre-screening             ...     20851
Total number of primitive shell pairs       ...    106522
Primitive shell pairs kept                  ...     52341
          la=0 lb=0:   6359 shell pairs
          la=1 lb=0:   8491 shell pairs
          la=1 lb=1:   2905 shell pairs
          la=2 lb=0:   1773 shell pairs
          la=2 lb=1:   1201 shell pairs
          la=2 lb=2:    122 shell pairs

Checking whether 4 symmetric matrices of dimension 480 fit in memory
:Max Core in MB      =   2560.00
 MB in use           =     29.32
 MB left             =   2530.68
 MB needed           =      3.52
 Data fit in memory  = YES
Calculating RI/J V-Matrix + Cholesky decomp.... done (  0.1 sec)
Calculating Nuclear repulsion               ... done (  0.0 sec) ENN=   1438.472541617217 Eh

Diagonalization of the overlap matrix:
Smallest eigenvalue                        ... 1.026e-06
Time for diagonalization                   ...    0.052 sec
Threshold for overlap eigenvalues          ... 1.000e-07
Number of eigenvalues below threshold      ... 0
Time for construction of square roots      ...    0.022 sec
Total time needed                          ...    0.077 sec

-------------------
DFT GRID GENERATION
-------------------

General Integration Accuracy     IntAcc      ... 4.388
Radial Grid Type                 RadialGrid  ... OptM3 with GC (2021)
Angular Grid (max. ang.)         AngularGrid ... 4 (Lebedev-302)
Angular grid pruning method      GridPruning ... 4 (adaptive)
Weight generation scheme         WeightScheme... mBecke (2022)
Basis function cutoff            BFCut       ... 1.0000e-11
Integration weight cutoff        WCut        ... 1.0000e-14
Partially contracted basis set               ... off
Rotationally invariant grid construction     ... off
Angular grids for H and He will be reduced by one unit
Diffuse basis detected: some atoms will have their outermost
                        angular grid increased by 1.

Total number of grid points                  ...   199563
Total number of batches                      ...     3142
Average number of points per batch           ...       63
Average number of grid points per atom       ...     4536

--------------------
COSX GRID GENERATION
--------------------

GRIDX 1
-------
General Integration Accuracy     IntAcc      ... 3.816
Radial Grid Type                 RadialGrid  ... OptM3 with GC (2021)
Angular Grid (max. ang.)         AngularGrid ... 1 (Lebedev-50)
Angular grid pruning method      GridPruning ... 4 (adaptive)
Weight generation scheme         WeightScheme... mBecke (2022)
Basis function cutoff            BFCut       ... 1.0000e-11
Integration weight cutoff        WCut        ... 1.0000e-14
Partially contracted basis set               ... on
Rotationally invariant grid construction     ... off
Angular grids for H and He will be reduced by one unit
Diffuse basis detected: some atoms will have their outermost
                        angular grid increased by 1.

Total number of grid points                  ...    25424
Total number of batches                      ...      224
Average number of points per batch           ...      113
Average number of grid points per atom       ...      578
UseSFitting                                  ... on

GRIDX 2
-------
General Integration Accuracy     IntAcc      ... 4.020
Radial Grid Type                 RadialGrid  ... OptM3 with GC (2021)
Angular Grid (max. ang.)         AngularGrid ... 2 (Lebedev-110)
Angular grid pruning method      GridPruning ... 4 (adaptive)
Weight generation scheme         WeightScheme... mBecke (2022)
Basis function cutoff            BFCut       ... 1.0000e-11
Integration weight cutoff        WCut        ... 1.0000e-14
Partially contracted basis set               ... on
Rotationally invariant grid construction     ... off
Angular grids for H and He will be reduced by one unit
Diffuse basis detected: some atoms will have their outermost
                        angular grid increased by 1.

Total number of grid points                  ...    56996
Total number of batches                      ...      466
Average number of points per batch           ...      122
Average number of grid points per atom       ...     1295
UseSFitting                                  ... on

GRIDX 3
-------
General Integration Accuracy     IntAcc      ... 4.338
Radial Grid Type                 RadialGrid  ... OptM3 with GC (2021)
Angular Grid (max. ang.)         AngularGrid ... 3 (Lebedev-194)
Angular grid pruning method      GridPruning ... 4 (adaptive)
Weight generation scheme         WeightScheme... mBecke (2022)
Basis function cutoff            BFCut       ... 1.0000e-11
Integration weight cutoff        WCut        ... 1.0000e-14
Partially contracted basis set               ... on
Rotationally invariant grid construction     ... off
Angular grids for H and He will be reduced by one unit
Diffuse basis detected: some atoms will have their outermost
                        angular grid increased by 1.

Total number of grid points                  ...   122884
Total number of batches                      ...      981
Average number of points per batch           ...      125
Average number of grid points per atom       ...     2793
UseSFitting                                  ... on
Grids setup in   3.7 sec
Initializing property integral containers    ... done (  0.0 sec)

SHARK setup successfully completed in   4.1 seconds

Maximum memory used throughout the entire STARTUP-calculation: 63.7 MB


           ************************************************************
           *        Program running with 12 parallel MPI-processes    *
           *              working on a common directory               *
           ************************************************************
-------------------------------------------------------------------------------
                                 ORCA GUESS
                   Start orbitals & Density for SCF / CASSCF
-------------------------------------------------------------------------------

------------
SCF SETTINGS
------------
Hamiltonian:
 Density Functional     Method          .... DFT(GTOs)
 Exchange Functional    Exchange        .... WB97X-D3
 Correlation Functional Correlation     .... WB97X-D3
 Gradients option       PostSCFGGA      .... off
 Hybrid DFT is turned on
   Fraction HF Exchange ScalHFX         ....  0.195728
   Scaling of DF-GGA-X  ScalDFX         ....  0.000000
   Scaling of DF-GGA-C  ScalDFC         ....  1.000000
   Scaling of DF-LDA-C  ScalLDAC        ....  1.000000
   Perturbative correction              ....  0.000000
 Long-range corrected/Screened/Range-Separated Hybrid DFT is turned on
   Amount of maximum screened exact exchange              ....  0.804272
   Range separation parameter mu (erf(mu*r12)/r12)        ....  0.250000
 RI-approximation to the Coulomb term is turned on
   Number of AuxJ basis functions       .... 1244
   RIJ-COSX (HFX calculated with COS-X)).... on


General Settings:
 Integral files         IntName         .... input
 Hartree-Fock type      HFTyp           .... RHF
 Total Charge           Charge          ....    0
 Multiplicity           Mult            ....    1
 Number of Electrons    NEL             ....  144
 Basis Dimension        Dim             ....  480
 Nuclear Repulsion      ENuc            ....   1438.4725416172 Eh

Convergence Acceleration:
 AO-DIIS                CNVDIIS         .... on
   Start iteration      DIISMaxIt       ....    12
   Startup error        DIISStart       ....  0.200000
   # of expansion vecs  DIISMaxEq       ....     5
   Bias factor          DIISBfac        ....   1.050
   Max. coefficient     DIISMaxC        ....  10.000
 MO-DIIS                CNVKDIIS        .... off
 Trust-Rad. Augm. Hess. CNVTRAH         .... auto
   Auto Start mean grad. ratio tolernc. ....  1.125000
   Auto Start start iteration           ....    50
   Auto Start num. interpolation iter.  ....    10
   Max. Number of Micro iterations      ....    24
   Max. Number of Macro iterations      .... Maxiter - #DIIS iter
   Number of Davidson start vectors     ....     2
   Converg. threshold    (grad. norm)   ....   1.000e-05
   Grad. Scal. Fac. for Micro threshold ....   0.100
   Minimum threshold for Micro iter.    ....   1.000e-02
   NR start threshold (gradient norm)   ....   1.000e-04
   Initial trust radius                 ....   0.400
   Minimum AH scaling param. (alpha)    ....   1.000
   Maximum AH scaling param. (alpha)    .... 1000.000
   Quad. conv. algorithm                .... NR
   White noise on init. David. guess    .... on
   Maximum white noise                  ....   0.010
   Pseudo random numbers                .... off
   Inactive MOs                         .... canonical
   Orbital update algorithm             .... Taylor
   Preconditioner                       .... Diag
   Full preconditioner red. dimension   ....   250
 SOSCF                 CNVSOSCF           .... on
   Start iteration     SOSCFMaxIt         ....   150
   Startup grad/error  SOSCFStart         ....  0.003300
   Hessian update      SOSCFHessUp        .... L-BFGS
   Autom. constraints  SOSCFAutoConstrain .... off
 Level Shifting         CNVShift        .... on
   Level shift para.    LevelShift      ....    0.2500
   Turn off err/grad.   ShiftErr        ....    0.0010
 Zerner damping         CNVZerner       .... off
 Static damping         CNVDamp         .... on
   Fraction old density DampFac         ....    0.7000
   Max. Damping (<1)    DampMax         ....    0.9800
   Min. Damping (>=0)   DampMin         ....    0.0000
   Turn off err/grad.   DampErr         ....    0.1000

SCF Procedure:
 Maximum # iterations   MaxIter         ....   125
 SCF integral mode      SCFMode         .... Direct
   Integral package                     .... SHARK and LIBINT hybrid scheme
 Reset frequency        DirectResetFreq ....    20
 Integral Threshold     Thresh          ....  2.500e-11 Eh
 Primitive CutOff       TCut            ....  2.500e-12 Eh

Convergence Tolerance:
 Convergence Check Mode ConvCheckMode   .... Total+1el-Energy
 Convergence forced     ConvForced      .... 0
 Energy Change          TolE            ....  1.000e-08 Eh
 1-El. energy change                    ....  1.000e-05 Eh
 Orbital Gradient       TolG            ....  1.000e-05
 Orbital Rotation angle TolX            ....  1.000e-05
 DIIS Error             TolErr          ....  5.000e-07

------------------------------
INITIAL GUESS: MODEL POTENTIAL
------------------------------
Loading Hartree-Fock densities                     ... done
Calculating cut-offs                               ... done
Initializing the effective Hamiltonian             ... done
Setting up the integral package (SHARK)            ... done
Starting the Coulomb interaction                   ... done (   0.4 sec)
Making the grid                                    ... done (   0.5 sec)
Mapping shells                                     ... done
Starting the XC term evaluation                    ... done (   0.2 sec)
  promolecular density results
     # of electrons  =    143.984688969
     EX              =   -109.655127052
     EC              =     -4.754697083
     EX+EC           =   -114.409824135
Transforming the Hamiltonian                       ... done (   0.0 sec)
Diagonalizing the Hamiltonian                      ... done (   0.1 sec)
Back transforming the eigenvectors                 ... done (   0.0 sec)
Now organizing SCF variables                       ... done
                      ------------------
                      INITIAL GUESS DONE (   1.2 sec)
                      ------------------
             **** ENERGY FILE WAS UPDATED (input.en.tmp) ****
Finished Guess after   1.5 sec
Maximum memory used throughout the entire GUESS-calculation: 36.0 MB


           ************************************************************
           *        Program running with 12 parallel MPI-processes    *
           *              working on a common directory               *
           ************************************************************

-------------------------------------------------------------------------------------------
                                      ORCA LEAN-SCF
                              memory conserving SCF solver
-------------------------------------------------------------------------------------------

--------------------
CPCM SOLVATION MODEL
--------------------
CPCM parameters:
  Epsilon                                         ...       4.7113
  Refrac                                          ...       1.4459
  Rsolv                                           ...       1.3000
  Surface type                                    ... GAUSSIAN VDW
  Discretization scheme                           ... Constant charge density
    Threshold for H atoms                         ...       5.0000 (charges/Ang^2)
    Threshold for non-H atoms                     ...       5.0000 (charges/Ang^2)
  Epsilon function type                           ...         CPCM
Solvent:                                          ... CHLOROFORM
SMD-CDS solvent descriptors:
  Soln                                            ...       1.4459
  Soln25                                          ...       1.4431
  Sola                                            ...       0.1500
  Solb                                            ...       0.0200
  Solg                                            ...      38.3900
  Solc                                            ...       0.0000
  Solh                                            ...       0.7500
Radii:
  Scheme                                          ... Element-dependent radii
  Radius for C  used is    3.4960 Bohr (=   1.8500 Ang.)
  Radius for H  used is    2.2677 Bohr (=   1.2000 Ang.)
  Radius for N  used is    3.5716 Bohr (=   1.8900 Ang.)
  Radius for B  used is    3.6283 Bohr (=   1.9200 Ang.)
Calculating surface                               ...        done! (  0.0s)
Cavity surface points                             ...         3213
Cavity Volume                                     ...    2073.4152
Cavity Surface-area                               ...    1189.9229
Calculating surface distance matrix               ...        done! (  0.1s)
Performing Cholesky decomposition & store         ...        done! (  0.3s)
Overall time for CPCM initialization              ...                 0.5s

----------------------------------------D-I-I-S--------------------------------------------
Iteration    Energy (Eh)           Delta-E    RMSDP     MaxDP     DIISErr   Damp  Time(sec)
-------------------------------------------------------------------------------------------
               ***  Starting incremental Fock matrix formation  ***
    1    -782.7533478276575352     0.00e+00  5.51e-02  1.57e+00  1.30e-01  0.700  15.7
    2    -782.9060602573001688    -1.53e-01  4.72e-02  1.29e+00  8.07e-02  0.700   7.8
                               ***Turning on AO-DIIS***
    3    -782.9934899157849486    -8.74e-02  3.48e-02  8.77e-01  4.40e-02  0.700   7.9
    4    -783.0467062853092557    -5.32e-02  8.47e-02  2.13e+00  2.93e-02  0.000   7.5
    5    -783.1608848883622613    -1.14e-01  7.31e-03  1.62e-01  3.65e-03  0.000   7.8
                              *** Initializing SOSCF ***
---------------------------------------S-O-S-C-F--------------------------------------
Iteration    Energy (Eh)           Delta-E    RMSDP     MaxDP     MaxGrad    Time(sec)
--------------------------------------------------------------------------------------
    6    -783.1611460202609578    -2.61e-04  3.28e-03  7.51e-02  1.49e-03     7.1
               *** Restarting incremental Fock matrix formation ***
    7    -783.1612180882309531    -7.21e-05  5.08e-03  1.67e-01  1.09e-03    15.7
    8    -783.1612533710110711    -3.53e-05  3.14e-03  8.74e-02  5.38e-04    12.1
    9    -783.1612633446623022    -9.97e-06  2.58e-03  8.57e-02  8.28e-05    11.9
   10    -783.1612654868815753    -2.14e-06  1.08e-03  2.33e-02  2.94e-05    11.0
   11    -783.1612655975325197    -1.11e-07  6.58e-04  1.72e-02  1.94e-05     9.7
   12    -783.1612656435315785    -4.60e-08  1.25e-03  4.73e-02  5.00e-06     8.9
   13    -783.1612656520453584    -8.51e-09  2.58e-03  8.94e-02  2.65e-06     8.9
                 **** Energy Check signals convergence ****

               *****************************************************
               *                     SUCCESS                       *
               *           SCF CONVERGED AFTER  13 CYCLES          *
               *****************************************************

Recomputing exchange energy using gridx3       ... done (   27.377 sec)
Old exchange energy                            :    -37.384027693 Eh
New exchange energy                            :    -37.384050189 Eh
Exchange energy change after final integration :     -0.000022496 Eh
Total energy after final integration           :   -783.161288139 Eh

SMD CDS free energy correction energy :                -6.07479     Kcal/mol
Total Energy after SMD CDS correction =              -783.170968927 Eh
             **** ENERGY FILE WAS UPDATED (input.en.tmp) ****

----------------
TOTAL SCF ENERGY
----------------

Total Energy       :       -783.17096892685390 Eh          -21311.16550 eV

Components:
Nuclear Repulsion  :       1438.47254161721708 Eh           39142.82784 eV
Electronic Energy  :      -2221.61772867520085 Eh          -60453.29178 eV
One Electron Energy:      -3913.62115597104821 Eh         -106495.04576 eV
Two Electron Energy:       1692.00342729584713 Eh           46041.75397 eV
CPCM Dielectric    :         -0.01607858499412 Eh              -0.43752 eV
SMD CDS (Gcds)     :         -0.00968078738708 Eh              -0.26343 eV

Virial components:
Potential Energy   :      -1560.78814561418449 Eh          -42471.20464 eV
Kinetic Energy     :        777.61717668733058 Eh           21160.03913 eV
Virial Ratio       :          2.00714206476660

DFT components:
N(Alpha)           :       72.000173099408 electrons
N(Beta)            :       72.000173099408 electrons
N(Total)           :      144.000346198817 electrons
E(XC)              :      -80.284134733167 Eh       

CPCM Solvation Model Properties:
Surface-charge          :         -0.07565014990769
Corrected charge        :         -0.00000000000000
Outlying charge corr.   :          0.00024654710163 Eh               0.00671 eV
Free-energy (cav+disp)  :         -0.00968078738708 Eh              -0.26343 eV

---------------
SCF CONVERGENCE
---------------

  Last Energy change         ...    8.5138e-09  Tolerance :   1.0000e-08
  Last MAX-Density change    ...    8.9359e-02  Tolerance :   1.0000e-07
  Last RMS-Density change    ...    2.5844e-03  Tolerance :   5.0000e-09
  Last DIIS Error            ...    1.4856e-03  Tolerance :   5.0000e-07
  Last Orbital Gradient      ...    2.6510e-06  Tolerance :   1.0000e-05
  Last Orbital Rotation      ...    2.2901e-05  Tolerance :   1.0000e-05


----------------
ORBITAL ENERGIES
----------------

  NO   OCC          E(Eh)            E(eV) 
   0   2.0000     -14.441439      -392.9715 
   1   2.0000     -14.439798      -392.9269 
   2   2.0000     -10.326967      -281.0110 
   3   2.0000     -10.322515      -280.8899 
   4   2.0000     -10.303195      -280.3642 
   5   2.0000     -10.301329      -280.3134 
   6   2.0000     -10.300016      -280.2777 
   7   2.0000     -10.299238      -280.2565 
   8   2.0000     -10.292436      -280.0714 
   9   2.0000     -10.291235      -280.0387 
  10   2.0000     -10.290225      -280.0113 
  11   2.0000     -10.289875      -280.0017 
  12   2.0000     -10.286580      -279.9121 
  13   2.0000     -10.285738      -279.8891 
  14   2.0000     -10.285252      -279.8759 
  15   2.0000     -10.284085      -279.8442 
  16   2.0000     -10.276719      -279.6437 
  17   2.0000     -10.275950      -279.6228 
  18   2.0000      -6.857679      -186.6069 
  19   2.0000      -6.854403      -186.5178 
  20   2.0000      -1.056406       -28.7463 
  21   2.0000      -1.053842       -28.6765 
  22   2.0000      -0.964238       -26.2383 
  23   2.0000      -0.963778       -26.2257 
  24   2.0000      -0.868062       -23.6212 
  25   2.0000      -0.862080       -23.4584 
  26   2.0000      -0.858288       -23.3552 
  27   2.0000      -0.856798       -23.3147 
  28   2.0000      -0.820388       -22.3239 
  29   2.0000      -0.818861       -22.2823 
  30   2.0000      -0.775124       -21.0922 
  31   2.0000      -0.757011       -20.5993 
  32   2.0000      -0.751185       -20.4408 
  33   2.0000      -0.712016       -19.3749 
  34   2.0000      -0.700050       -19.0493 
  35   2.0000      -0.680067       -18.5056 
  36   2.0000      -0.673622       -18.3302 
  37   2.0000      -0.624831       -17.0025 
  38   2.0000      -0.615007       -16.7352 
  39   2.0000      -0.578300       -15.7364 
  40   2.0000      -0.574404       -15.6303 
  41   2.0000      -0.571365       -15.5476 
  42   2.0000      -0.565792       -15.3960 
  43   2.0000      -0.559504       -15.2249 
  44   2.0000      -0.556090       -15.1320 
  45   2.0000      -0.546910       -14.8822 
  46   2.0000      -0.532428       -14.4881 
  47   2.0000      -0.529203       -14.4003 
  48   2.0000      -0.519916       -14.1476 
  49   2.0000      -0.516437       -14.0530 
  50   2.0000      -0.504672       -13.7328 
  51   2.0000      -0.499606       -13.5950 
  52   2.0000      -0.491028       -13.3616 
  53   2.0000      -0.486281       -13.2324 
  54   2.0000      -0.481233       -13.0950 
  55   2.0000      -0.473467       -12.8837 
  56   2.0000      -0.472388       -12.8543 
  57   2.0000      -0.465507       -12.6671 
  58   2.0000      -0.461205       -12.5500 
  59   2.0000      -0.458603       -12.4792 
  60   2.0000      -0.455664       -12.3992 
  61   2.0000      -0.443469       -12.0674 
  62   2.0000      -0.432274       -11.7628 
  63   2.0000      -0.426705       -11.6112 
  64   2.0000      -0.422209       -11.4889 
  65   2.0000      -0.400083       -10.8868 
  66   2.0000      -0.357981        -9.7412 
  67   2.0000      -0.351309        -9.5596 
  68   2.0000      -0.336236        -9.1494 
  69   2.0000      -0.333328        -9.0703 
  70   2.0000      -0.293249        -7.9797 
  71   2.0000      -0.286656        -7.8003 
  72   0.0000       0.034212         0.9310 
  73   0.0000       0.059095         1.6081 
  74   0.0000       0.061109         1.6628 
  75   0.0000       0.067633         1.8404 
  76   0.0000       0.070847         1.9279 
  77   0.0000       0.072690         1.9780 
  78   0.0000       0.073754         2.0070 
  79   0.0000       0.075228         2.0471 
  80   0.0000       0.084143         2.2897 
  81   0.0000       0.090325         2.4579 
  82   0.0000       0.091885         2.5003 
*Only the first 10 virtual orbitals were printed.

                    ********************************
                    * MULLIKEN POPULATION ANALYSIS *
                    ********************************

-----------------------
MULLIKEN ATOMIC CHARGES
-----------------------
   0 C :   -0.344788
   1 C :    0.030249
   2 C :   -0.298627
   3 C :    0.122388
   4 C :   -0.630325
   5 C :   -0.028153
   6 H :    0.167291
   7 H :    0.177390
   8 H :    0.180770
   9 H :    0.171858
  10 N :   -0.153078
  11 B :    0.263219
  12 H :    0.010044
  13 H :    0.032220
  14 H :    0.029582
  15 C :   -0.293992
  16 H :    0.167857
  17 H :    0.150606
  18 H :    0.172313
  19 C :   -0.219543
  20 H :    0.154380
  21 H :    0.164248
  22 H :    0.163301
  23 B :   -0.160065
  24 H :    0.022972
  25 C :   -0.252479
  26 C :   -0.561603
  27 C :    0.367854
  28 C :   -0.076363
  29 C :   -0.347637
  30 H :    0.167129
  31 C :   -0.150153
  32 H :    0.172682
  33 H :    0.178004
  34 H :    0.181162
  35 N :   -0.141681
  36 C :   -0.293879
  37 H :    0.166909
  38 H :    0.153377
  39 H :    0.171000
  40 C :   -0.264339
  41 H :    0.153343
  42 H :    0.168657
  43 H :    0.155899
Sum of atomic charges:   -0.0000000

--------------------------------
MULLIKEN REDUCED ORBITAL CHARGES
--------------------------------
  0 C s       :     3.142063  s :     3.142063
      pz      :     1.012348  p :     3.166076
      px      :     1.039984
      py      :     1.113743
      dz2     :     0.002648  d :     0.036650
      dxz     :     0.007008
      dyz     :     0.003881
      dx2y2   :     0.011684
      dxy     :     0.011429

  1 C s       :     2.997068  s :     2.997068
      pz      :     0.977915  p :     2.937510
      px      :     1.036368
      py      :     0.923227
      dz2     :     0.003402  d :     0.035173
      dxz     :     0.003657
      dyz     :     0.006020
      dx2y2   :     0.011965
      dxy     :     0.010129

  2 C s       :     3.223100  s :     3.223100
      pz      :     0.956164  p :     3.039632
      px      :     1.056538
      py      :     1.026930
      dz2     :     0.003738  d :     0.035895
      dxz     :     0.005343
      dyz     :     0.004455
      dx2y2   :     0.009607
      dxy     :     0.012751

  3 C s       :     2.787656  s :     2.787656
      pz      :     1.015131  p :     3.056044
      px      :     1.023756
      py      :     1.017157
      dz2     :     0.002751  d :     0.033912
      dxz     :     0.006595
      dyz     :     0.003669
      dx2y2   :     0.010243
      dxy     :     0.010655

  4 C s       :     3.702563  s :     3.702563
      pz      :     1.127836  p :     2.869304
      px      :     0.827874
      py      :     0.913593
      dz2     :     0.005392  d :     0.058458
      dxz     :     0.011776
      dyz     :     0.006608
      dx2y2   :     0.018532
      dxy     :     0.016151

  5 C s       :     3.064316  s :     3.064316
      pz      :     1.088743  p :     2.932046
      px      :     1.056671
      py      :     0.786632
      dz2     :     0.003361  d :     0.031792
      dxz     :     0.005323
      dyz     :     0.004849
      dx2y2   :     0.009760
      dxy     :     0.008500

  6 H s       :     0.820529  s :     0.820529
      pz      :     0.003195  p :     0.012180
      px      :     0.002242
      py      :     0.006743

  7 H s       :     0.810346  s :     0.810346
      pz      :     0.002849  p :     0.012265
      px      :     0.007308
      py      :     0.002108

  8 H s       :     0.807022  s :     0.807022
      pz      :     0.002651  p :     0.012208
      px      :     0.004661
      py      :     0.004896

  9 H s       :     0.815495  s :     0.815495
      pz      :     0.003332  p :     0.012646
      px      :     0.002297
      py      :     0.007017

 10 N s       :     3.298994  s :     3.298994
      pz      :     1.369287  p :     3.813918
      px      :     1.210298
      py      :     1.234333
      dz2     :     0.009963  d :     0.040166
      dxz     :     0.005900
      dyz     :     0.005930
      dx2y2   :     0.012291
      dxy     :     0.006082

 11 B s       :     2.692261  s :     2.692261
      pz      :     0.637796  p :     1.988028
      px      :     0.615243
      py      :     0.734989
      dz2     :     0.011060  d :     0.056492
      dxz     :     0.010846
      dyz     :     0.016347
      dx2y2   :     0.007068
      dxy     :     0.011171

 12 H s       :     0.983813  s :     0.983813
      pz      :     0.002632  p :     0.006143
      px      :     0.001007
      py      :     0.002505

 13 H s       :     0.956555  s :     0.956555
      pz      :     0.002663  p :     0.011225
      px      :     0.003936
      py      :     0.004625

 14 H s       :     0.960015  s :     0.960015
      pz      :     0.002587  p :     0.010403
      px      :     0.003961
      py      :     0.003855

 15 C s       :     3.261736  s :     3.261736
      pz      :     1.097581  p :     2.985880
      px      :     1.084083
      py      :     0.804216
      dz2     :     0.007950  d :     0.046376
      dxz     :     0.002990
      dyz     :     0.013664
      dx2y2   :     0.014488
      dxy     :     0.007284

 16 H s       :     0.821286  s :     0.821286
      pz      :     0.002287  p :     0.010857
      px      :     0.007074
      py      :     0.001495

 17 H s       :     0.838546  s :     0.838546
      pz      :     0.004733  p :     0.010848
      px      :     0.002511
      py      :     0.003604

 18 H s       :     0.816698  s :     0.816698
      pz      :     0.005975  p :     0.010989
      px      :     0.002747
      py      :     0.002267

 19 C s       :     3.209698  s :     3.209698
      pz      :     0.837179  p :     2.963618
      px      :     1.064868
      py      :     1.061571
      dz2     :     0.015796  d :     0.046227
      dxz     :     0.007187
      dyz     :     0.009826
      dx2y2   :     0.010080
      dxy     :     0.003338

 20 H s       :     0.834878  s :     0.834878
      pz      :     0.004918  p :     0.010742
      px      :     0.002669
      py      :     0.003155

 21 H s       :     0.824871  s :     0.824871
      pz      :     0.001591  p :     0.010881
      px      :     0.007124
      py      :     0.002166

 22 H s       :     0.825287  s :     0.825287
      pz      :     0.001751  p :     0.011412
      px      :     0.002586
      py      :     0.007075

 23 B s       :     3.213614  s :     3.213614
      pz      :     0.655822  p :     1.890043
      px      :     0.573342
      py      :     0.660880
      dz2     :     0.011883  d :     0.056408
      dxz     :     0.010688
      dyz     :     0.014363
      dx2y2   :     0.008359
      dxy     :     0.011115

 24 H s       :     0.970755  s :     0.970755
      pz      :     0.002875  p :     0.006273
      px      :     0.001018
      py      :     0.002380

 25 C s       :     3.250028  s :     3.250028
      pz      :     0.900034  p :     2.971307
      px      :     1.018105
      py      :     1.053167
      dz2     :     0.008649  d :     0.031145
      dxz     :     0.008301
      dyz     :     0.007406
      dx2y2   :     0.003110
      dxy     :     0.003679

 26 C s       :     3.441889  s :     3.441889
      pz      :     0.876768  p :     3.060396
      px      :     0.853339
      py      :     1.330290
      dz2     :     0.013472  d :     0.059318
      dxz     :     0.016109
      dyz     :     0.011978
      dx2y2   :     0.007869
      dxy     :     0.009890

 27 C s       :     2.587774  s :     2.587774
      pz      :     1.077110  p :     3.007439
      px      :     0.984299
      py      :     0.946030
      dz2     :     0.010075  d :     0.036933
      dxz     :     0.008142
      dyz     :     0.005937
      dx2y2   :     0.006865
      dxy     :     0.005915

 28 C s       :     2.904556  s :     2.904556
      pz      :     1.054122  p :     3.138308
      px      :     0.916907
      py      :     1.167279
      dz2     :     0.009184  d :     0.033498
      dxz     :     0.007610
      dyz     :     0.005266
      dx2y2   :     0.005760
      dxy     :     0.005679

 29 C s       :     3.370685  s :     3.370685
      pz      :     0.993033  p :     2.942042
      px      :     1.008040
      py      :     0.940970
      dz2     :     0.008349  d :     0.034909
      dxz     :     0.010740
      dyz     :     0.006218
      dx2y2   :     0.005041
      dxy     :     0.004562

 30 H s       :     0.820534  s :     0.820534
      pz      :     0.007136  p :     0.012337
      px      :     0.002229
      py      :     0.002972

 31 C s       :     3.125546  s :     3.125546
      pz      :     0.935459  p :     2.988345
      px      :     1.062497
      py      :     0.990388
      dz2     :     0.010375  d :     0.036262
      dxz     :     0.009677
      dyz     :     0.007867
      dx2y2   :     0.003159
      dxy     :     0.005183

 32 H s       :     0.814605  s :     0.814605
      pz      :     0.007241  p :     0.012713
      px      :     0.002284
      py      :     0.003188

 33 H s       :     0.809698  s :     0.809698
      pz      :     0.005040  p :     0.012298
      px      :     0.004476
      py      :     0.002781

 34 H s       :     0.806662  s :     0.806662
      pz      :     0.002081  p :     0.012176
      px      :     0.005946
      py      :     0.004149

 35 N s       :     3.273970  s :     3.273970
      pz      :     1.092555  p :     3.827883
      px      :     1.071488
      py      :     1.663839
      dz2     :     0.009223  d :     0.039829
      dxz     :     0.011396
      dyz     :     0.006372
      dx2y2   :     0.004782
      dxy     :     0.008056

 36 C s       :     3.257336  s :     3.257336
      pz      :     0.805956  p :     2.990004
      px      :     1.087168
      py      :     1.096880
      dz2     :     0.011651  d :     0.046539
      dxz     :     0.009117
      dyz     :     0.013126
      dx2y2   :     0.006088
      dxy     :     0.006556

 37 H s       :     0.822214  s :     0.822214
      pz      :     0.003334  p :     0.010877
      px      :     0.004034
      py      :     0.003508

 38 H s       :     0.835816  s :     0.835816
      pz      :     0.002316  p :     0.010807
      px      :     0.002114
      py      :     0.006377

 39 H s       :     0.817972  s :     0.817972
      pz      :     0.001528  p :     0.011027
      px      :     0.006183
      py      :     0.003316

 40 C s       :     3.241941  s :     3.241941
      pz      :     1.113226  p :     2.975817
      px      :     0.811188
      py      :     1.051403
      dz2     :     0.008724  d :     0.046580
      dxz     :     0.008142
      dyz     :     0.004063
      dx2y2   :     0.014082
      dxy     :     0.011571

 41 H s       :     0.835906  s :     0.835906
      pz      :     0.002661  p :     0.010751
      px      :     0.001478
      py      :     0.006612

 42 H s       :     0.820499  s :     0.820499
      pz      :     0.003745  p :     0.010844
      px      :     0.003747
      py      :     0.003352

 43 H s       :     0.832563  s :     0.832563
      pz      :     0.006916  p :     0.011538
      px      :     0.002331
      py      :     0.002291



                     *******************************
                     * LOEWDIN POPULATION ANALYSIS *
                     *******************************

----------------------
LOEWDIN ATOMIC CHARGES
----------------------
   0 C :   -0.147208
   1 C :   -0.165214
   2 C :   -0.144630
   3 C :   -0.163608
   4 C :   -0.073988
   5 C :   -0.181851
   6 H :    0.165563
   7 H :    0.161717
   8 H :    0.162453
   9 H :    0.175284
  10 N :   -0.435635
  11 B :   -0.196844
  12 H :    0.106512
  13 H :    0.240092
  14 H :    0.223335
  15 C :   -0.219572
  16 H :    0.148265
  17 H :    0.141811
  18 H :    0.157720
  19 C :   -0.212919
  20 H :    0.146200
  21 H :    0.149142
  22 H :    0.158856
  23 B :   -0.162537
  24 H :    0.120974
  25 C :   -0.192598
  26 C :   -0.052746
  27 C :   -0.142156
  28 C :   -0.172720
  29 C :   -0.173891
  30 H :    0.166218
  31 C :   -0.133690
  32 H :    0.174301
  33 H :    0.161827
  34 H :    0.162931
  35 N :   -0.421528
  36 C :   -0.219206
  37 H :    0.148405
  38 H :    0.142303
  39 H :    0.156385
  40 C :   -0.208678
  41 H :    0.145656
  42 H :    0.148910
  43 H :    0.156361

-------------------------------
LOEWDIN REDUCED ORBITAL CHARGES
-------------------------------
  0 C s       :     2.876095  s :     2.876095
      pz      :     0.990978  p :     3.184067
      px      :     1.103593
      py      :     1.089497
      dz2     :     0.005770  d :     0.087046
      dxz     :     0.014864
      dyz     :     0.007138
      dx2y2   :     0.029729
      dxy     :     0.029546

  1 C s       :     2.882071  s :     2.882071
      pz      :     1.005557  p :     3.198044
      px      :     1.093903
      py      :     1.098583
      dz2     :     0.006979  d :     0.085099
      dxz     :     0.007012
      dyz     :     0.013668
      dx2y2   :     0.030113
      dxy     :     0.027327

  2 C s       :     2.882774  s :     2.882774
      pz      :     0.985710  p :     3.175664
      px      :     1.095540
      py      :     1.094414
      dz2     :     0.007470  d :     0.086192
      dxz     :     0.011533
      dyz     :     0.009612
      dx2y2   :     0.026193
      dxy     :     0.031384

  3 C s       :     2.866519  s :     2.866519
      pz      :     1.016064  p :     3.213921
      px      :     1.105908
      py      :     1.091949
      dz2     :     0.006124  d :     0.083168
      dxz     :     0.014350
      dyz     :     0.006867
      dx2y2   :     0.027387
      dxy     :     0.028440

  4 C s       :     2.823190  s :     2.823190
      pz      :     0.979470  p :     3.110207
      px      :     1.016013
      py      :     1.114724
      dz2     :     0.012052  d :     0.140590
      dxz     :     0.024384
      dyz     :     0.014493
      dx2y2   :     0.047686
      dxy     :     0.041975

  5 C s       :     2.861276  s :     2.861276
      pz      :     0.989413  p :     3.239804
      px      :     1.138887
      py      :     1.111504
      dz2     :     0.007512  d :     0.080772
      dxz     :     0.011703
      dyz     :     0.010741
      dx2y2   :     0.026404
      dxy     :     0.024411

  6 H s       :     0.793498  s :     0.793498
      pz      :     0.009598  p :     0.040939
      px      :     0.007313
      py      :     0.024029

  7 H s       :     0.796655  s :     0.796655
      pz      :     0.008316  p :     0.041628
      px      :     0.026414
      py      :     0.006897

  8 H s       :     0.796151  s :     0.796151
      pz      :     0.007574  p :     0.041396
      px      :     0.016480
      py      :     0.017343

  9 H s       :     0.782413  s :     0.782413
      pz      :     0.010060  p :     0.042303
      px      :     0.007497
      py      :     0.024746

 10 N s       :     3.141686  s :     3.141686
      pz      :     1.476133  p :     4.198623
      px      :     1.334946
      py      :     1.387543
      dz2     :     0.021564  d :     0.095326
      dxz     :     0.014138
      dyz     :     0.014385
      dx2y2   :     0.028568
      dxy     :     0.016669

 11 B s       :     2.700453  s :     2.700453
      pz      :     0.822032  p :     2.372409
      px      :     0.732838
      py      :     0.817538
      dz2     :     0.023511  d :     0.123983
      dxz     :     0.022580
      dyz     :     0.035596
      dx2y2   :     0.015259
      dxy     :     0.027037

 12 H s       :     0.876472  s :     0.876472
      pz      :     0.007618  p :     0.017016
      px      :     0.002726
      py      :     0.006672

 13 H s       :     0.734361  s :     0.734361
      pz      :     0.006583  p :     0.025547
      px      :     0.008992
      py      :     0.009972

 14 H s       :     0.752540  s :     0.752540
      pz      :     0.006590  p :     0.024125
      px      :     0.009072
      py      :     0.008463

 15 C s       :     2.898698  s :     2.898698
      pz      :     1.128841  p :     3.225440
      px      :     1.124707
      py      :     0.971892
      dz2     :     0.015430  d :     0.095435
      dxz     :     0.005142
      dyz     :     0.028141
      dx2y2   :     0.031107
      dxy     :     0.015615

 16 H s       :     0.812546  s :     0.812546
      pz      :     0.006939  p :     0.039189
      px      :     0.027307
      py      :     0.004943

 17 H s       :     0.818832  s :     0.818832
      pz      :     0.017404  p :     0.039356
      px      :     0.008258
      py      :     0.013695

 18 H s       :     0.802600  s :     0.802600
      pz      :     0.022890  p :     0.039679
      px      :     0.009074
      py      :     0.007716

 19 C s       :     2.897069  s :     2.897069
      pz      :     0.994419  p :     3.220986
      px      :     1.111430
      py      :     1.115137
      dz2     :     0.034137  d :     0.094864
      dxz     :     0.014939
      dyz     :     0.020715
      dx2y2   :     0.018858
      dxy     :     0.006215

 20 H s       :     0.814545  s :     0.814545
      pz      :     0.019242  p :     0.039255
      px      :     0.008990
      py      :     0.011023

 21 H s       :     0.811657  s :     0.811657
      pz      :     0.005070  p :     0.039201
      px      :     0.027457
      py      :     0.006674

 22 H s       :     0.800921  s :     0.800921
      pz      :     0.005444  p :     0.040223
      px      :     0.008279
      py      :     0.026500

 23 B s       :     2.702172  s :     2.702172
      pz      :     0.808881  p :     2.335493
      px      :     0.726959
      py      :     0.799653
      dz2     :     0.025851  d :     0.124872
      dxz     :     0.022896
      dyz     :     0.032008
      dx2y2   :     0.018017
      dxy     :     0.026101

 24 H s       :     0.861582  s :     0.861582
      pz      :     0.008306  p :     0.017444
      px      :     0.002687
      py      :     0.006450

 25 C s       :     2.857545  s :     2.857545
      pz      :     1.091774  p :     3.255567
      px      :     1.114844
      py      :     1.048949
      dz2     :     0.024836  d :     0.079486
      dxz     :     0.022414
      dyz     :     0.017424
      dx2y2   :     0.006145
      dxy     :     0.008667

 26 C s       :     2.823166  s :     2.823166
      pz      :     1.054157  p :     3.087556
      px      :     1.047844
      py      :     0.985555
      dz2     :     0.034006  d :     0.142024
      dxz     :     0.040334
      dyz     :     0.027588
      dx2y2   :     0.016384
      dxy     :     0.023712

 27 C s       :     2.876343  s :     2.876343
      pz      :     1.089856  p :     3.178461
      px      :     1.080247
      py      :     1.008358
      dz2     :     0.022963  d :     0.087353
      dxz     :     0.021266
      dyz     :     0.013051
      dx2y2   :     0.014932
      dxy     :     0.015141

 28 C s       :     2.865914  s :     2.865914
[...]
      pz      :     0.017946  p :     0.041771
      px      :     0.015431
      py      :     0.008394

 34 H s       :     0.795780  s :     0.795780
      pz      :     0.006825  p :     0.041289
      px      :     0.020934
      py      :     0.013531

 35 N s       :     3.128548  s :     3.128548
      pz      :     1.256547  p :     4.197137
      px      :     1.256491
      py      :     1.684099
      dz2     :     0.025141  d :     0.095842
      dxz     :     0.030004
      dyz     :     0.012859
      dx2y2   :     0.011572
      dxy     :     0.016266

 36 C s       :     2.897832  s :     2.897832
      pz      :     0.970939  p :     3.225561
      px      :     1.124894
      py      :     1.129728
      dz2     :     0.025490  d :     0.095813
      dxz     :     0.019583
      dyz     :     0.027524
      dx2y2   :     0.011460
      dxy     :     0.011757

 37 H s       :     0.812377  s :     0.812377
      pz      :     0.012264  p :     0.039219
      px      :     0.014806
      py      :     0.012148

 38 H s       :     0.818380  s :     0.818380
      pz      :     0.008437  p :     0.039317
      px      :     0.006809
      py      :     0.024072

 39 H s       :     0.803852  s :     0.803852
      pz      :     0.005071  p :     0.039763
      px      :     0.023164
      py      :     0.011528

 40 C s       :     2.895986  s :     2.895986
      pz      :     1.137060  p :     3.217162
      px      :     0.974912
      py      :     1.105190
      dz2     :     0.017624  d :     0.095530
      dxz     :     0.016234
      dyz     :     0.007426
      dx2y2   :     0.029422
      dxy     :     0.024824

 41 H s       :     0.815211  s :     0.815211
      pz      :     0.008599  p :     0.039133
      px      :     0.005035
      py      :     0.025499

 42 H s       :     0.811833  s :     0.811833
      pz      :     0.013092  p :     0.039257
      px      :     0.014071
      py      :     0.012094

 43 H s       :     0.803423  s :     0.803423
      pz      :     0.025764  p :     0.040216
      px      :     0.007757
      py      :     0.006695



                      *****************************
                      * MAYER POPULATION ANALYSIS *
                      *****************************

  NA   - Mulliken gross atomic population
  ZA   - Total nuclear charge
  QA   - Mulliken gross atomic charge
  VA   - Mayer's total valence
  BVA  - Mayer's bonded valence
  FA   - Mayer's free valence

  ATOM       NA         ZA         QA         VA         BVA        FA
  0 C      6.3448     6.0000    -0.3448     4.1969     4.1969    -0.0000
  1 C      5.9698     6.0000     0.0302     3.9510     3.9510     0.0000
  2 C      6.2986     6.0000    -0.2986     4.4003     4.4003     0.0000
  3 C      5.8776     6.0000     0.1224     4.1462     4.1462     0.0000
  4 C      6.6303     6.0000    -0.6303     3.9917     3.9917    -0.0000
  5 C      6.0282     6.0000    -0.0282     3.5465     3.5465     0.0000
  6 H      0.8327     1.0000     0.1673     0.9432     0.9432    -0.0000
  7 H      0.8226     1.0000     0.1774     0.9435     0.9435     0.0000
  8 H      0.8192     1.0000     0.1808     0.9414     0.9414     0.0000
  9 H      0.8281     1.0000     0.1719     0.9441     0.9441     0.0000
 10 N      7.1531     7.0000    -0.1531     2.4740     2.4740    -0.0000
 11 B      4.7368     5.0000     0.2632     3.4364     3.4364     0.0000
 12 H      0.9900     1.0000     0.0100     0.9794     0.9794    -0.0000
 13 H      0.9678     1.0000     0.0322     0.9599     0.9599    -0.0000
 14 H      0.9704     1.0000     0.0296     0.9611     0.9611    -0.0000
 15 C      6.2940     6.0000    -0.2940     3.6156     3.6156     0.0000
 16 H      0.8321     1.0000     0.1679     0.9414     0.9414    -0.0000
 17 H      0.8494     1.0000     0.1506     0.9399     0.9399     0.0000
 18 H      0.8277     1.0000     0.1723     0.9421     0.9421     0.0000
 19 C      6.2195     6.0000    -0.2195     3.4939     3.4939     0.0000
 20 H      0.8456     1.0000     0.1544     0.9420     0.9420     0.0000
 21 H      0.8358     1.0000     0.1642     0.9423     0.9423     0.0000
 22 H      0.8367     1.0000     0.1633     0.9459     0.9459     0.0000
 23 B      5.1601     5.0000    -0.1601     3.9118     3.9118    -0.0000
 24 H      0.9770     1.0000     0.0230     0.9815     0.9815    -0.0000
 25 C      6.2525     6.0000    -0.2525     3.7735     3.7735    -0.0000
 26 C      6.5616     6.0000    -0.5616     4.1897     4.1897    -0.0000
 27 C      5.6321     6.0000     0.3679     3.0207     3.0207     0.0000
 28 C      6.0764     6.0000    -0.0764     4.4270     4.4270    -0.0000
 29 C      6.3476     6.0000    -0.3476     4.2982     4.2982    -0.0000
 30 H      0.8329     1.0000     0.1671     0.9426     0.9426    -0.0000
 31 C      6.1502     6.0000    -0.1502     4.2247     4.2247    -0.0000
 32 H      0.8273     1.0000     0.1727     0.9442     0.9442    -0.0000
 33 H      0.8220     1.0000     0.1780     0.9428     0.9428     0.0000
 34 H      0.8188     1.0000     0.1812     0.9410     0.9410     0.0000
 35 N      7.1417     7.0000    -0.1417     2.6640     2.6640     0.0000
 36 C      6.2939     6.0000    -0.2939     3.6225     3.6225     0.0000
 37 H      0.8331     1.0000     0.1669     0.9419     0.9419    -0.0000
 38 H      0.8466     1.0000     0.1534     0.9404     0.9404    -0.0000
 39 H      0.8290     1.0000     0.1710     0.9432     0.9432    -0.0000
 40 C      6.2643     6.0000    -0.2643     3.5687     3.5687     0.0000
 41 H      0.8467     1.0000     0.1533     0.9425     0.9425     0.0000
 42 H      0.8313     1.0000     0.1687     0.9398     0.9398    -0.0000
 43 H      0.8441     1.0000     0.1559     0.9467     0.9467    -0.0000

  Mayer bond orders larger than 0.100000
B(  0-C ,  1-C ) :   1.5440 B(  0-C ,  4-C ) :   0.2511 B(  0-C ,  5-C ) :   1.3379 
B(  0-C ,  6-H ) :   0.7949 B(  0-C , 11-B ) :   0.2140 B(  1-C ,  2-C ) :   1.6388 
B(  1-C ,  3-C ) :  -0.2230 B(  1-C ,  7-H ) :   0.8482 B(  2-C ,  3-C ) :   1.7105 
B(  2-C ,  5-C ) :   0.2477 B(  2-C ,  8-H ) :   0.8192 B(  3-C ,  4-C ) :   1.3982 
B(  3-C ,  5-C ) :   0.2461 B(  3-C ,  9-H ) :   0.6351 B(  4-C ,  5-C ) :   0.9851 
B(  4-C ,  9-H ) :   0.1910 B(  4-C , 10-N ) :   1.3584 B(  4-C , 13-H ) :   0.1977 
B(  4-C , 19-C ) :  -0.2152 B(  5-C , 10-N ) :  -0.3507 B(  5-C , 11-B ) :   0.8867 
B(  5-C , 13-H ) :  -0.2113 B( 10-N , 15-C ) :   0.8155 B( 10-N , 19-C ) :   0.8220 
B( 11-B , 12-H ) :   0.8795 B( 11-B , 13-H ) :   0.4796 B( 11-B , 14-H ) :   0.4764 
B( 11-B , 23-B ) :   0.6393 B( 11-B , 25-C ) :  -0.1683 B( 13-H , 23-B ) :   0.4892 
B( 13-H , 25-C ) :  -0.1568 B( 13-H , 27-C ) :   0.1259 B( 14-H , 23-B ) :   0.4894 
B( 15-C , 16-H ) :   0.9682 B( 15-C , 17-H ) :   0.9565 B( 15-C , 18-H ) :   0.9837 
B( 19-C , 20-H ) :   0.9749 B( 19-C , 21-H ) :   0.9666 B( 19-C , 22-H ) :   0.9586 
B( 23-B , 24-H ) :   0.9347 B( 23-B , 25-C ) :   1.3343 B( 23-B , 26-C ) :  -0.2628 
B( 23-B , 29-C ) :   0.1467 B( 23-B , 30-H ) :   0.1118 B( 24-H , 25-C ) :   0.1730 
B( 24-H , 26-C ) :  -0.2267 B( 25-C , 26-C ) :   1.2195 B( 25-C , 27-C ) :   1.0254 
B( 25-C , 28-C ) :   0.1977 B( 25-C , 29-C ) :   0.1273 B( 25-C , 31-C ) :   0.2267 
B( 25-C , 32-H ) :   0.1302 B( 25-C , 35-N ) :  -0.5295 B( 26-C , 28-C ) :   1.6493 
B( 26-C , 32-H ) :   0.1520 B( 26-C , 35-N ) :   1.5243 B( 27-C , 28-C ) :   0.1195 
B( 27-C , 29-C ) :   1.4436 B( 27-C , 30-H ) :   0.7026 B( 27-C , 31-C ) :  -0.2068 
B( 28-C , 29-C ) :  -0.1703 B( 28-C , 31-C ) :   1.6872 B( 28-C , 32-H ) :   0.6627 
B( 28-C , 35-N ) :   0.1329 B( 29-C , 31-C ) :   1.6751 B( 29-C , 33-H ) :   0.9010 
B( 31-C , 34-H ) :   0.8049 B( 35-N , 36-C ) :   0.7782 B( 35-N , 40-C ) :   0.8253 
B( 36-C , 37-H ) :   0.9708 B( 36-C , 38-H ) :   0.9481 B( 36-C , 39-H ) :   0.9835 
B( 40-C , 41-H ) :   0.9755 B( 40-C , 42-H ) :   0.9626 B( 40-C , 43-H ) :   0.9686 


-------
TIMINGS
-------

Total SCF time: 0 days 0 hours 2 min 49 sec 

Total time                  ....     169.582 sec
Sum of individual times     ....     160.485 sec  ( 94.6%)

SCF preparation             ....       0.827 sec  (  0.5%)
Fock matrix formation       ....     157.369 sec  ( 92.8%)
  Startup                   ....       0.065 sec  (  0.0% of F)
  Split-RI-J                ....       8.266 sec  (  5.3% of F)
  Chain of spheres X        ....     136.610 sec  ( 86.8% of F)
  XC integration            ....       9.364 sec  (  6.0% of F)
    XC Preparation          ....       0.000 sec  (  0.0% of XC)
    Basis function eval.    ....       2.771 sec  ( 29.6% of XC)
    Density eval.           ....       3.110 sec  ( 33.2% of XC)
    XC-Functional eval.     ....       0.294 sec  (  3.1% of XC)
    XC-Potential eval.      ....       2.289 sec  ( 24.4% of XC)
  CPCM terms                ....      10.804 sec  (  6.9% of F)
Diagonalization             ....       0.000 sec  (  0.0%)
Density matrix formation    ....       0.324 sec  (  0.2%)
Total Energy calculation    ....       0.086 sec  (  0.1%)
Population analysis         ....       0.088 sec  (  0.1%)
Orbital Transformation      ....       0.226 sec  (  0.1%)
Orbital Orthonormalization  ....       0.000 sec  (  0.0%)
DIIS solution               ....       0.952 sec  (  0.6%)
SOSCF solution              ....       0.611 sec  (  0.4%)
Finished LeanSCF after 169.8 sec

Maximum memory used throughout the entire LEANSCF-calculation: 70.1 MB


-------------------------------------------------------------------------------
                          DFT DISPERSION CORRECTION                            
                                                                               
                              DFTD3 V3.1  Rev 1                                
                              USING zero damping                               
-------------------------------------------------------------------------------
The omegaB97X-D3 functional is recognized. Fit by Chai et al.
Active option DFTDOPT                   ...         3   

molecular C6(AA) [au] = 18964.443732 


            DFT-D V3
 parameters
 s6 scaling factor         :     1.0000 
 rs6 scaling factor        :     1.2810 
 s8 scaling factor         :     1.0000 
 rs8 scaling factor        :     1.0940 
 Damping factor alpha6     :    14.0000 
 Damping factor alpha8     :    16.0000 
 ad hoc parameters k1-k3   :    16.0000     1.3333    -4.0000 

 Edisp/kcal,au: -12.447501955001  -0.019836354895 
 E6   /kcal   :  -6.025900445 
 E8   /kcal   :  -6.421601510 
 % E8         :  51.589479825 

-------------------------   ----------------
Dispersion correction           -0.019836355
-------------------------   ----------------


-------------------------   --------------------
FINAL SINGLE POINT ENERGY      -783.190805281748
-------------------------   --------------------



           ************************************************************
           *        Program running with 12 parallel MPI-processes    *
           *              working on a common directory               *
           ************************************************************

------------------------------------------------------------------------------
                              ORCA PROPERTY CALCULATIONS
------------------------------------------------------------------------------

GBWName                                 ... input.gbw
Number of atoms                         ...     44
Number of basis functions               ...    480
Max core memory                         ...   2560 MB

Electric properties:
Dipole moment                           ... YES
Quadrupole moment                       ...  NO
Static polarizability (Dipole/Dipole)   ...  NO
Static polarizability (Dipole/Quad.)    ...  NO
Static polarizability (Quad./Quad.)     ...  NO
Static polarizability (Velocity)        ...  NO
Static hyperpolarizability              ...  NO

Atomic electric properties:
Dipole moment                           ...  NO
Quadrupole moment                       ...  NO
Static polarizability                   ...  NO

Choice of electric origin               ... Center of mass
Position of electric origin             ...    -5.161713    -4.813772    -0.227977

General magnetic properties:
Magnetizability                         ...  NO

EPR properties:
g-Tensor (aka g-matrix)                 ...  NO
Zero-Field splitting spin-orbit         ...  NO
Zero-field splitting spin-spin          ...  NO
Hyperfine couplings                     ...  NO (   0 nuclei)
Quadrupole couplings                    ...  NO (   0 nuclei)
Contact density                         ...  NO (   0 nuclei)

NMR properties:
Chemical shifts                         ...  NO (   0 nuclei)
Spin-rotation constants                 ...  NO (   0 nuclei)
Spin-spin couplings                     ...  NO (   0 nuclei,    0 pairs)

Choice of magnetic origin               ... GIAO
Position of magnetic origin             ...     0.000000     0.000000     0.000000

Properties with geometric perturbations:
SCF Hessian                             ...  NO
IR spectrum                             ...  NO
VCD spectrum                            ...  NO
X-ray spectroscopy properties:
SCF XES/XAS/RIXS spectra                ...  NO

SCF SOC stabilization energy            ...  NO
Diagonal Born-Oppenheimer correction    ...  NO

-------------
DIPOLE MOMENT
-------------

Method             : SCF
Type of density    : Electron Density
Multiplicity       :   1
Irrep              :   0
Energy             :  -783.1709689268539023 Eh
Basis              : AO
                                X                 Y                 Z
Electronic contribution:      1.625628595      -2.367727117       2.548935676
Nuclear contribution   :     -1.704878514       2.371196910      -2.713915333
                        -----------------------------------------
Total Dipole Moment    :     -0.079249919       0.003469794      -0.164979658
                        -----------------------------------------
Magnitude (a.u.)       :      0.183059763
Magnitude (Debye)      :      0.465300939



--------------------
Rotational spectrum 
--------------------
 
Rotational constants in cm-1:             0.018409             0.005598             0.004793 
Rotational constants in MHz :           551.890963           167.833675           143.677193 

Dipole components along the rotational axes: 
x,y,z [a.u.] :     0.135679    -0.040283     0.116101 
x,y,z [Debye]:     0.344867    -0.102392     0.295106 

 

Dipole moment calculation done in   0.0 sec 

Maximum memory used throughout the entire PROP-calculation: 36.9 MB

--------------------------------
SUGGESTED CITATIONS FOR THIS RUN
--------------------------------

Below you find a list of papers that are relevant to this ORCA run
We neither can nor want to force you to cite these papers, but we appreciate if you do
You receive ORCA, which is the product of decades of hard work by many enthusiastic individuals, for free
The only thing we kindly ask in return is that you cite our papers,
We deeply appreciate it, if you show your appreciation for ORCA by not just citing the generic ORCA reference.

Please note that relegating all ORCA citations to the supporting information does *not* help us.
SI sections are not indexed - citations you put there will not count into any citation statistics
But we need these citations in order to attract the funding resources that allow us to do what we are doing

Therefore, if you are a happy ORCA user, please consider citing a few of the papers listed below in the main body of your paper

In addition to the list printed below, the program has created the file input.bibtex that contains the list in bibtex format
You can import this file easily into all common literature databanks and citation aid programs


List of essential papers. We consider these as the minimum necessary citations

  1. Neese, F.
     Software update: the ORCA program system, version 6.0
     WIRES Comput. Molec. Sci. 2025 15(1), e70019
     doi.org/10.1002/wcms.7019

List of papers to cite with high priority. The work reported in these papers was absolutely
necessary for this run to complete.
Our perspective: the developers of density functionals and basis sets usually get cited in chemistry papers
Good! But without the algorithms to do something with them, the functionals or basis sets would not do anything.
Hence, in our opinion, the algorithm design and method developments papers are equally worthy of getting cited

  1. Neese, F.
     An improvement of the resolution of the identity approximation for the formation of the Coulomb matrix
     J. Comp. Chem. 2003 24(14), 1740-1747
     doi.org/10.1002/jcc.10318
  2. Neese, F.; Wennmohs, F.; Hansen, A.; Becker, U.
     Efficient, approximate and parallel Hartree-Fock and hybrid DFT calculations. A 'chain-of-spheres' algorithm for the Hartree-Fock exchange
     Chem. Phys. 2009 356(1-3), 98-109
     doi.org/10.1016/j.chemphys.2008.10.036
  3. Grimme, S.; Antony, J.; Ehrlich, S.; Krieg, H.
     A consistent and accurate ab initio parametrization of density functional dispersion correction (DFT-D) for the 94 elements H-Pu
     J. Chem. Phys. 2010 132 , 154104
     doi.org/10.1063/1.3382344
  4. Garcia-Rates, M.; Neese, F.
     Effect of the Solute Cavity on the Solvation Energy and its Derivatives within the Framework of the Gaussian Charge Scheme
     J. Comput. Chem. 2020 41 , 922-939
     doi.org/10.1002/jcc.26139
  5. Helmich-Paris, B.; de Souza, B.; Neese, F.; Izsák, R.
     An improved chain of spheres for exchange algorithm
     J. Chem. Phys. 2021 155(10), 104109
     doi.org/10.1063/5.0058766
  6. Neese, F.
     The SHARK Integral Generation and Digestion System
     J. Comp. Chem. 2022 44(3), 381
     doi.org/10.1002/jcc.26942

List of suggested additional citations. These are papers that are important in the 'surrounding' of 
of this run, or papers that preceded the highly important papers. If you like your results we are grateful for a citation.

  1. Izsak, R.; Neese, F.
     An overlap fitted chain of spheres exchange method
     J. Chem. Phys. 2011 135 , 144105
     doi.org/10.1063/1.3646921
  2. Izsak, R.; Hansen, A.; Neese, F.
     The resolution of identity and chain of spheres approximations for the LPNO-CCSD singles Fock term
     Molec. Phys. 2012 110 , 2413-2417
     doi.org/10.1080/00268976.2012.687466
  3. Neese, F.
     The ORCA program system
     WIRES Comput. Molec. Sci. 2012 2(1), 73-78
     doi.org/10.1002/wcms.81
  4. Izsak, R.; Neese, F.; Klopper, W.
     Robust fitting techniques in the chain of spheres approximation to the Fock exchange: The role of the complementary space
     J. Chem. Phys. 2013 139 , 
     doi.org/10.1063/1.4819264
  5. Neese, F.
     Software update: the ORCA program system, version 4.0
     WIRES Comput. Molec. Sci. 2018 8(1), 1-6
     doi.org/10.1002/wcms.1327
  6. Neese, F.; Wennmohs, F.; Becker, U.; Riplinger, C.
     The ORCA quantum chemistry program package
     J. Chem. Phys. 2020 152(22), 224108
     doi.org/10.1063/5.0004608
  7. Neese, F.
     Software update: The ORCA program system—Version 5.0
     WIRES Comput. Molec. Sci. 2022 12(1), e1606
     doi.org/10.1002/wcms.1606

List of optional additional citations

  1. Neese, F.
     Approximate second-order SCF convergence for spin unrestricted wavefunctions
     Chem. Phys. Lett. 2000 325(1-3), 93-98
     doi.org/10.1016/s0009-2614(00)00662-x

Timings for individual modules:

Sum of individual times          ...      176.452 sec (=   2.941 min)
Startup calculation              ...        4.382 sec (=   0.073 min)   2.5 %
SCF iterations                   ...      171.652 sec (=   2.861 min)  97.3 %
Property calculations            ...        0.418 sec (=   0.007 min)   0.2 %
                             ****ORCA TERMINATED NORMALLY****
TOTAL RUN TIME: 0 days 0 hours 2 minutes 56 seconds 922 msec
