      -----------------------------------------------------------      
     |                   =====================                   |     
     |                           x T B                           |     
     |                   =====================                   |     
     |                         S. Grimme                         |     
     |          Mulliken Center for Theoretical Chemistry        |     
     |                    University of Bonn                     |     
      -----------------------------------------------------------      

   * xtb version 6.7.1 (edcfbbe) compiled by 'conda@3ef47c1a292c' on 2024-11-25

   xtb is free software: you can redistribute it and/or modify it under
   the terms of the GNU Lesser General Public License as published by
   the Free Software Foundation, either version 3 of the License, or
   (at your option) any later version.
   
   xtb is distributed in the hope that it will be useful,
   but WITHOUT ANY WARRANTY; without even the implied warranty of
   MERCHANTABILITY or FITNESS FOR A PARTICULAR PURPOSE.  See the
   GNU Lesser General Public License for more details.
   
   Cite this work as:
   * C. Bannwarth, E. Caldeweyher, S. Ehlert, A. Hansen, P. Pracht,
     J. Seibert, S. Spicher, S. Grimme, WIREs Comput. Mol. Sci., 2020, 11,
     e01493. DOI: 10.1002/wcms.1493
   
   for GFN2-xTB:
   * C. Bannwarth, S. Ehlert and S. Grimme., J. Chem. Theory Comput., 2019,
     15, 1652-1671. DOI: 10.1021/acs.jctc.8b01176
   for GFN1-xTB:
   * S. Grimme, C. Bannwarth, P. Shushkov, J. Chem. Theory Comput., 2017,
     13, 1989-2009. DOI: 10.1021/acs.jctc.7b00118
   for GFN0-xTB:
   * P. Pracht, E. Caldeweyher, S. Ehlert, S. Grimme, ChemRxiv, 2019, preprint.
     DOI: 10.26434/chemrxiv.8326202.v1
   for GFN-FF:
   * S. Spicher and S. Grimme, Angew. Chem. Int. Ed., 2020, 59, 15665-15673.
     DOI: 10.1002/anie.202004239
   
   for ALPB and GBSA implicit solvation:
   * S. Ehlert, M. Stahn, S. Spicher, S. Grimme, J. Chem. Theory Comput.,
     2021, 17, 4250-4261. DOI: 10.1021/acs.jctc.1c00471
   
   for ddCOSMO and CPCM-X implicit solvation:
   * M. Stahn, S. Ehlert, S. Grimme, J. Phys. Chem. A,
     2023, XX, XXXX-XXXX. DOI: 10.1021/acs.jpca.3c04382
   
   for DFT-D4:
   * E. Caldeweyher, C. Bannwarth and S. Grimme, J. Chem. Phys., 2017,
     147, 034112. DOI: 10.1063/1.4993215
   * E. Caldeweyher, S. Ehlert, A. Hansen, H. Neugebauer, S. Spicher,
     C. Bannwarth and S. Grimme, J. Chem. Phys., 2019, 150, 154122.
     DOI: 10.1063/1.5090222
   * E. Caldeweyher, J.-M. Mewes, S. Ehlert and S. Grimme, Phys. Chem. Chem. Phys.
     2020, 22, 8499-8512. DOI: 10.1039/D0CP00502A
   
   for sTDA-xTB:
   * S. Grimme and C. Bannwarth, J. Chem. Phys., 2016, 145, 054103.
     DOI: 10.1063/1.4959605
   
   in the mass-spec context:
   * V. Asgeirsson, C. Bauer and S. Grimme, Chem. Sci., 2017, 8, 4879.
     DOI: 10.1039/c7sc00601b
   * J. Koopman and S. Grimme, ACS Omega 2019, 4, 12, 15120-15133.
     DOI: 10.1021/acsomega.9b02011
   
   for metadynamics refer to:
   * S. Grimme, J. Chem. Theory Comput., 2019, 155, 2847-2862
     DOI: 10.1021/acs.jctc.9b00143
   
   for SPH calculations refer to:
   * S. Spicher and S. Grimme, J. Chem. Theory Comput., 2021, 17, 1701-1714
     DOI: 10.1021/acs.jctc.0c01306
   
   for ONIOM refer to:
   * C. Plett, A. Katbashev, S. Ehlert, S. Grimme, M. Bursch,
     Phys. Chem. Chem. Phys., 2023, 25, 17860-17868. DOI: 10.1039/D3CP02178E
   
   for DIPRO refer to:
   * J. Kohn, N. Gildemeister, S. Grimme, D. Fazzi, A. Hansen,
     J. Chem. Phys., 2023, just accepted.
   
   for PTB refer to:
   * S. Grimme, M. Mueller, A. Hansen, J. Chem. Phys., 2023, 158, 124111.
     DOI: 10.1063/5.0137838
   
   with help from (in alphabetical order)
   P. Atkinson, C. Bannwarth, F. Bohle, G. Brandenburg, E. Caldeweyher
   M. Checinski, S. Dohm, S. Ehlert, S. Ehrlich, I. Gerasimov, C. Hölzer
   A. Katbashev, J. Kohn, J. Koopman, C. Lavigne, S. Lehtola, F. März, M. Müller,
   F. Musil, H. Neugebauer, J. Pisarek, C. Plett, P. Pracht, F. Pultar,
   J. Seibert, P. Shushkov, S. Spicher, M. Stahn, M. Steiner, T. Strunk,
   J. Stückrath, T. Rose, and J. Unsleber
   
 * started run on 2025/07/29 at 12:34:01.190     
$$$$$$$$$$$$$$$$$$$$$$$$$$$$$$$$$$$$$$$$$$$$$$$$$$$$$$$$$$$$$$$$$$$$$$$$
 CONSTRAINTS & SCANS: DEBUG SECTION
$$$$$$$$$$$$$$$$$$$$$$$$$$$$$$$$$$$$$$$$$$$$$$$$$$$$$$$$$$$$$$$$$$$$$$$$
   ID    Z sym.   atoms
    1    6 C      1-6, 13-15, 17, 24-26, 30, 34, 38, 43, 44, 46-49, 52, 57, 58
    2    1 H      7-10, 12, 16, 18-20, 27-29, 31-33, 35-37, 39-41, 50, 51,
                  53-56, 59-70
    3    5 B      11, 21
    4    8 O      22, 23
    5    7 N      42
    6   16 S      45
> constrain
-> force constant=6
-> distance: 12, 11, 1.376
--> 1: 12
--> 2: 11
--> 3: 1.376
constraining bond 12 11 to    1.3760000 Å, actual value:    1.3758875 Å
-> distance: 12, 21, 1.264
--> 1: 12
--> 2: 21
--> 3: 1.264
constraining bond 12 21 to    1.2640000 Å, actual value:    1.2641472 Å
-> distance: 12, 13, 2.477
--> 1: 12
--> 2: 13
--> 3: 2.477
constraining bond 12 13 to    2.4770000 Å, actual value:    2.4768763 Å
-> distance: 13, 11, 1.616
--> 1: 13
--> 2: 11
--> 3: 1.616
constraining bond 13 11 to    1.6160000 Å, actual value:    1.6158833 Å
-> distance: 13, 21, 2.180
--> 1: 13
--> 2: 21
--> 3: 2.180
constraining bond 13 21 to    2.1800000 Å, actual value:    2.1798570 Å
-> distance: 11, 21, 2.007
--> 1: 11
--> 2: 21
--> 3: 2.007
constraining bond 11 21 to    2.0070000 Å, actual value:    2.0071487 Å
-> angle: 11, 12, 21, 98.89
--> 1: 11
--> 2: 12
--> 3: 21
--> 4: 98.89
constraining angle 11 12 21 to   98.8900000°, actual value:   98.8888006°
-> angle: 11, 13, 21, 61.75
--> 1: 11
--> 2: 13
--> 3: 21
--> 4: 61.75
constraining angle 11 13 21 to   61.7500000°, actual value:   61.7521008°
$$$$$$$$$$$$$$$$$$$$$$$$$$$$$$$$$$$$$$$$$$$$$$$$$$$$$$$$$$$$$$$$$$$$$$$$

           -------------------------------------------------
          |                Calculation Setup                |
           -------------------------------------------------

          program call               : xtb --chrg 0 --uhf 0 --norestart --verbose --parallel 1 --gfn 2 --opt --input details.inp -- mol.xyz
          hostname                   : fend02.cluster
          coordinate file            : mol.xyz
          xtbhome directory          : /groups/kemi/jmni
          path for xtb               : /groups/kemi/jmni
          xcontrol input file        : details.inp
          omp threads                :                     1

           -------------------------------------------------
          |                   Constraints                   |
           -------------------------------------------------

     total constraint energy/grad norm:     0.0000000     0.0000000


           -------------------------------------------------
          |                 G F N 2 - x T B                 |
           -------------------------------------------------

        Reference                      10.1021/acs.jctc.8b01176
      * Hamiltonian:
        H0-scaling (s, p, d)           1.850000    2.230000    2.230000
        zeta-weighting                 0.500000
      * Dispersion:
        s8                             2.700000
        a1                             0.520000
        a2                             5.000000
        s9                             5.000000
      * Repulsion:
        kExp                           1.500000    1.000000
        rExp                           1.000000
      * Coulomb:
        alpha                          2.000000
        third order                    shell-resolved
        anisotropic                    true
        a3                             3.000000
        a5                             4.000000
        cn-shift                       1.200000
        cn-exp                         4.000000
        max-rad                        5.000000


          ...................................................
          :                      SETUP                      :
          :.................................................:
          :  # basis functions                 169          :
          :  # atomic orbitals                 168          :
          :  # shells                          102          :
          :  # electrons                       168          :
          :  max. iterations                   250          :
          :  Hamiltonian                  GFN2-xTB          :
          :  restarted?                      false          :
          :  GBSA solvation                  false          :
          :  PC potential                    false          :
          :  electronic temp.          300.0000000     K    :
          :  accuracy                    1.0000000          :
          :  -> integral cutoff          0.2500000E+02      :
          :  -> integral neglect         0.1000000E-07      :
          :  -> SCF convergence          0.1000000E-05 Eh   :
          :  -> wf. convergence          0.1000000E-03 e    :
          :  Broyden damping             0.4000000          :
          :  net charge                          0          :
          :  unpaired electrons                  0          :
          ...................................................

 iter      E             dE          RMSdq      gap      omega  full diag
   1    -90.9838968 -0.909839E+02  0.452E+00    2.76       0.0  T
   2    -91.3715141 -0.387617E+00  0.291E+00    1.64       1.0  T
   3    -91.3822890 -0.107750E-01  0.135E+00    1.86       1.0  T
   4    -91.4086533 -0.263643E-01  0.585E-01    1.48       1.0  T
   5    -91.4270950 -0.184417E-01  0.226E-01    1.58       1.0  T
   6    -91.4273777 -0.282670E-03  0.149E-01    1.60       1.0  T
   7    -91.4281654 -0.787688E-03  0.389E-02    1.60       1.0  T
   8    -91.4282115 -0.461314E-04  0.183E-02    1.60       1.0  T
   9    -91.4282226 -0.111582E-04  0.746E-03    1.60       1.6  T
  10    -91.4282238 -0.118832E-05  0.301E-03    1.60       4.0  T
  11    -91.4282239 -0.858095E-07  0.157E-03    1.60       7.6  T
  12    -91.4282240 -0.413778E-07  0.685E-04    1.60      17.5  T
  13    -91.4282240 -0.139965E-07  0.281E-04    1.60      42.5  T

   *** convergence criteria satisfied after 13 iterations ***

         #    Occupation            Energy/Eh            Energy/eV
      -------------------------------------------------------------
         1        2.0000           -0.7183187             -19.5464
       ...           ...                  ...                  ...
        78        2.0000           -0.3905608             -10.6277
        79        2.0000           -0.3863662             -10.5136
        80        2.0000           -0.3832616             -10.4291
        81        2.0000           -0.3749283             -10.2023
        82        2.0000           -0.3717334             -10.1154
        83        2.0000           -0.3692848             -10.0488
        84        2.0000           -0.3114139              -8.4740 (HOMO)
        85                         -0.2525263              -6.8716 (LUMO)
        86                         -0.2041566              -5.5554
        87                         -0.2003805              -5.4526
        88                         -0.1863263              -5.0702
        89                         -0.1771864              -4.8215
       ...                                ...                  ...
       168                          0.6850372              18.6408
      -------------------------------------------------------------
                  HL-Gap            0.0588876 Eh            1.6024 eV
             Fermi-level           -0.2819701 Eh           -7.6728 eV

 SCC (total)                   0 d,  0 h,  0 min,  0.177 sec
 SCC setup                      ...        0 min,  0.001 sec (  0.390%)
 Dispersion                     ...        0 min,  0.002 sec (  0.971%)
 classical contributions        ...        0 min,  0.001 sec (  0.294%)
 integral evaluation            ...        0 min,  0.019 sec ( 10.892%)
 iterations                     ...        0 min,  0.089 sec ( 50.308%)
 molecular gradient             ...        0 min,  0.065 sec ( 36.827%)
 printout                       ...        0 min,  0.001 sec (  0.311%)

         :::::::::::::::::::::::::::::::::::::::::::::::::::::
         ::                     SUMMARY                     ::
         :::::::::::::::::::::::::::::::::::::::::::::::::::::
         :: total energy             -90.253211446424 Eh    ::
         :: gradient norm              0.084693601516 Eh/a0 ::
         :: HOMO-LUMO gap              1.602412398506 eV    ::
         ::.................................................::
         :: HOMO orbital eigv.        -8.474002278520 eV    ::
         :: LUMO orbital eigv.        -6.871589880015 eV    ::
         ::.................................................::
         :: SCC energy               -91.425260528924 Eh    ::
         :: -> isotropic ES            0.111742465363 Eh    ::
         :: -> anisotropic ES          0.020529583121 Eh    ::
         :: -> anisotropic XC          0.043700253949 Eh    ::
         :: -> dispersion             -0.088507216040 Eh    ::
         :: repulsion energy           1.172046805016 Eh    ::
         :: add. restraining           0.000002277484 Eh    ::
         :: total charge              -0.000000000000 e     ::
         ::.................................................::
         :: atomisation energy        19.227249630250 Eh    ::
         :::::::::::::::::::::::::::::::::::::::::::::::::::::

      ----------------------------------------------------------- 
     |                   =====================                   |
     |                        A N C O P T                        |
     |                   =====================                   |
     |               Approximate Normal Coordinate               |
     |                Rational Function Optimizer                |
      ----------------------------------------------------------- 
      ----------------------------------------------------------- 
     |                   =====================                   |
     |                        A N C O P T                        |
     |                   =====================                   |
     |               Approximate Normal Coordinate               |
     |                Rational Function Optimizer                |
      ----------------------------------------------------------- 

          ...................................................
          :                      SETUP                      :
          :.................................................:
          :   optimization level            normal          :
          :   max. optcycles                   210          :
          :   ANC micro-cycles                  20          :
          :   degrees of freedom               204          :
          :.................................................:
          :   RF solver                   davidson          :
          :   write xtbopt.log                true          :
          :   linear?                        false          :
          :   energy convergence         0.5000000E-05 Eh   :
          :   grad. convergence          0.1000000E-02 Eh/α :
          :   maxmium RF displ.          1.0000000          :
          :   Hlow (freq-cutoff)         0.1000000E-01      :
          :   Hmax (freq-cutoff)         5.0000000          :
          :   S6 in model hess.         20.0000000          :
          ...................................................

generating ANC from exact Hessian ...
Using Lindh-Hessian (1995)
 Shifting diagonal of input Hessian by    1.0040931105595022E-002
 Lowest  eigenvalues of input Hessian
    0.000000    0.000000    0.010000    0.000000    0.000000    0.000000
    0.000000    0.010086    0.010143    0.010361    0.010605    0.010873
    0.011036    0.011225    0.011386    0.012266    0.012329    0.012852
 Highest eigenvalues
    1.951058   17.605085   26.146874   30.809892   35.002809   48.740035


........................................................................
.............................. CYCLE    1 ..............................
........................................................................

 iter      E             dE          RMSdq      gap      omega  full diag
   1    -91.4282240 -0.914282E+02  0.125E-04    1.60       0.0  T
   2    -91.4282240 -0.142791E-09  0.830E-05    1.60     143.9  T
   3    -91.4282240 -0.109821E-09  0.583E-05    1.60     205.1  T
     SCC iter.                  ...        0 min,  0.022 sec
     gradient                   ...        0 min,  0.065 sec
 * total energy  :   -90.2532114 Eh     change       -0.1175934E-08 Eh
   gradient norm :     0.0846960 Eh/α   predicted     0.0000000E+00 (-100.00%)
   displ. norm   :     0.4582619 α      lambda       -0.2315515E-01
   maximum displ.:     0.2559197 α      in ANC's #51, #40, #95, ...

........................................................................
.............................. CYCLE    2 ..............................
........................................................................

 iter      E             dE          RMSdq      gap      omega  full diag
   1    -91.4980735 -0.914981E+02  0.226E-01    1.58       0.0  T
   2    -91.4982194 -0.145860E-03  0.135E-01    1.65       1.0  T
   3    -91.4981423  0.770763E-04  0.452E-02    1.64       1.0  T
   4    -91.4982335 -0.911816E-04  0.141E-02    1.66       1.0  T
   5    -91.4982438 -0.103709E-04  0.477E-03    1.65       2.5  T
   6    -91.4982439 -0.160422E-07  0.320E-03    1.65       3.7  T
   7    -91.4982442 -0.320465E-06  0.114E-03    1.65      10.4  T
   8    -91.4982442 -0.592508E-07  0.353E-04    1.65      33.8  T
   9    -91.4982442 -0.148135E-08  0.144E-04    1.65      82.8  T
     SCC iter.                  ...        0 min,  0.063 sec
     gradient                   ...        0 min,  0.066 sec
 * total energy  :   -90.2686684 Eh     change       -0.1545700E-01 Eh
   gradient norm :     0.1304082 Eh/α   predicted    -0.1401239E-01 (  -9.35%)
   displ. norm   :     0.4450434 α      lambda       -0.1234170E-01
   maximum displ.:     0.2429437 α      in ANC's #51, #17, #24, ...

........................................................................
.............................. CYCLE    3 ..............................
........................................................................

 iter      E             dE          RMSdq      gap      omega  full diag
   1    -91.5460399 -0.915460E+02  0.165E-01    1.61       0.0  T
   2    -91.5461752 -0.135246E-03  0.986E-02    1.67       1.0  T
   3    -91.5461224  0.527986E-04  0.439E-02    1.66       1.0  T
   4    -91.5461942 -0.718465E-04  0.112E-02    1.68       1.1  T
   5    -91.5462007 -0.649321E-05  0.319E-03    1.67       3.7  T
   6    -91.5462007 -0.426071E-07  0.185E-03    1.67       6.5  T
   7    -91.5462008 -0.557359E-07  0.685E-04    1.67      17.5  T
   8    -91.5462008 -0.176303E-07  0.337E-04    1.67      35.5  T
     SCC iter.                  ...        0 min,  0.053 sec
     gradient                   ...        0 min,  0.066 sec
 * total energy  :   -90.2627085 Eh     change        0.5959984E-02 Eh
   gradient norm :     0.7714470 Eh/α   predicted    -0.7393542E-02 (-224.05%)
   displ. norm   :     0.1559446 α      lambda       -0.2350936E-01
   maximum displ.:     0.0540692 α      in ANC's #17, #7, #51, ...

........................................................................
.............................. CYCLE    4 ..............................
........................................................................

 iter      E             dE          RMSdq      gap      omega  full diag
   1    -91.5481014 -0.915481E+02  0.684E-02    1.68       0.0  T
   2    -91.5481170 -0.155807E-04  0.383E-02    1.70       1.0  T
   3    -91.5480995  0.174793E-04  0.263E-02    1.69       1.0  T
   4    -91.5481299 -0.303520E-04  0.471E-03    1.70       2.5  T
   5    -91.5481309 -0.106511E-05  0.238E-03    1.70       5.0  T
   6    -91.5481312 -0.248262E-06  0.663E-04    1.70      18.0  T
   7    -91.5481312 -0.399021E-08  0.303E-04    1.70      39.4  T
     SCC iter.                  ...        0 min,  0.046 sec
     gradient                   ...        0 min,  0.066 sec
 * total energy  :   -90.2716247 Eh     change       -0.8916218E-02 Eh
   gradient norm :     0.4286722 Eh/α   predicted    -0.1204057E-01 (  35.04%)
   displ. norm   :     0.1830542 α      lambda       -0.2392604E-01
   maximum displ.:     0.0495959 α      in ANC's #18, #202, #200, ...

........................................................................
.............................. CYCLE    5 ..............................
........................................................................

 iter      E             dE          RMSdq      gap      omega  full diag
   1    -91.5237345 -0.915237E+02  0.101E-01    1.62       0.0  T
   2    -91.5237974 -0.629546E-04  0.563E-02    1.61       1.0  T
   3    -91.5237858  0.116301E-04  0.378E-02    1.60       1.0  T
   4    -91.5238295 -0.437145E-04  0.863E-03    1.60       1.4  T
   5    -91.5238313 -0.180626E-05  0.419E-03    1.60       2.9  T
   6    -91.5238321 -0.719274E-06  0.212E-03    1.60       5.6  T
   7    -91.5238322 -0.113052E-06  0.905E-04    1.60      13.2  T
   8    -91.5238322 -0.152068E-07  0.387E-04    1.60      30.9  T
     SCC iter.                  ...        0 min,  0.053 sec
     gradient                   ...        0 min,  0.067 sec
 * total energy  :   -90.2131509 Eh     change        0.5847375E-01 Eh
   gradient norm :     2.1598495 Eh/α   predicted    -0.1236392E-01 (-121.14%)
   displ. norm   :     0.0667887 α      lambda       -0.1215217E+00
   maximum displ.:     0.0407278 α      in ANC's #200, #202, #95, ...

........................................................................
.............................. CYCLE    6 ..............................
........................................................................

 iter      E             dE          RMSdq      gap      omega  full diag
   1    -91.5296830 -0.915297E+02  0.674E-02    1.67       0.0  T
   2    -91.5297401 -0.570466E-04  0.359E-02    1.65       1.0  T
   3    -91.5297638 -0.237683E-04  0.255E-02    1.66       1.0  T
   4    -91.5297760 -0.121307E-04  0.763E-03    1.65       1.6  T
   5    -91.5297773 -0.133939E-05  0.356E-03    1.65       3.4  T
   6    -91.5297780 -0.665697E-06  0.115E-03    1.65      10.4  T
   7    -91.5297780 -0.555233E-07  0.473E-04    1.65      25.3  T
   8    -91.5297780 -0.302205E-08  0.229E-04    1.65      52.3  T
     SCC iter.                  ...        0 min,  0.054 sec
     gradient                   ...        0 min,  0.068 sec
 * total energy  :   -90.2721964 Eh     change       -0.5904547E-01 Eh
   gradient norm :     0.3752184 Eh/α   predicted    -0.6103195E-01 (   3.36%)
   displ. norm   :     0.1579533 α      lambda       -0.2797036E-01
   maximum displ.:     0.0585835 α      in ANC's #204, #7, #49, ...

........................................................................
.............................. CYCLE    7 ..............................
........................................................................

 iter      E             dE          RMSdq      gap      omega  full diag
   1    -91.5419661 -0.915420E+02  0.129E-01    1.71       0.0  T
   2    -91.5420048 -0.386803E-04  0.700E-02    1.71       1.0  T
   3    -91.5419452  0.595777E-04  0.450E-02    1.71       1.0  T
   4    -91.5420345 -0.892370E-04  0.578E-03    1.71       2.1  T
   5    -91.5420350 -0.498600E-06  0.335E-03    1.71       3.6  T
   6    -91.5420353 -0.364083E-06  0.134E-03    1.71       8.9  T
   7    -91.5420354 -0.450607E-07  0.555E-04    1.71      21.5  T
   8    -91.5420354 -0.130673E-07  0.268E-04    1.71      44.6  T
     SCC iter.                  ...        0 min,  0.060 sec
     gradient                   ...        0 min,  0.072 sec
 * total energy  :   -90.2086601 Eh     change        0.6353627E-01 Eh
   gradient norm :     2.0728453 Eh/α   predicted    -0.1433395E-01 (-122.56%)
   displ. norm   :     0.0694368 α      lambda       -0.1310020E+00
   maximum displ.:     0.0508463 α      in ANC's #204, #202, #7, ...

........................................................................
.............................. CYCLE    8 ..............................
........................................................................

 iter      E             dE          RMSdq      gap      omega  full diag
   1    -91.5397777 -0.915398E+02  0.122E-01    1.66       0.0  T
   2    -91.5398159 -0.382709E-04  0.628E-02    1.67       1.0  T
   3    -91.5397698  0.461480E-04  0.448E-02    1.66       1.0  T
   4    -91.5398501 -0.803502E-04  0.463E-03    1.67       2.6  T
   5    -91.5398506 -0.508608E-06  0.266E-03    1.67       4.5  T
   6    -91.5398509 -0.223217E-06  0.852E-04    1.67      14.0  T
   7    -91.5398509 -0.153432E-07  0.469E-04    1.67      25.5  T
     SCC iter.                  ...        0 min,  0.053 sec
     gradient                   ...        0 min,  0.070 sec
 * total energy  :   -90.2745477 Eh     change       -0.6588755E-01 Eh
   gradient norm :     0.0892071 Eh/α   predicted    -0.6581872E-01 (  -0.10%)
   displ. norm   :     0.2024990 α      lambda       -0.4813078E-02
   maximum displ.:     0.1081663 α      in ANC's #7, #2, #17, ...

........................................................................
.............................. CYCLE    9 ..............................
........................................................................

 iter      E             dE          RMSdq      gap      omega  full diag
   1    -91.5363616 -0.915364E+02  0.643E-02    1.68       0.0  T
   2    -91.5363665 -0.492523E-05  0.379E-02    1.67       1.0  T
   3    -91.5363618  0.470579E-05  0.106E-02    1.67       1.1  T
   4    -91.5363674 -0.560665E-05  0.287E-03    1.67       4.2  T
   5    -91.5363676 -0.232598E-06  0.152E-03    1.67       7.9  T
   6    -91.5363677 -0.934914E-07  0.603E-04    1.67      19.8  T
   7    -91.5363677 -0.220352E-08  0.306E-04    1.67      39.0  T
     SCC iter.                  ...        0 min,  0.050 sec
     gradient                   ...        0 min,  0.072 sec
 * total energy  :   -90.2719794 Eh     change        0.2568309E-02 Eh
   gradient norm :     0.4512164 Eh/α   predicted    -0.1299393E-02 (-150.59%)
   displ. norm   :     0.1773881 α      lambda       -0.2598258E-01
   maximum displ.:     0.0933742 α      in ANC's #7, #2, #5, ...

........................................................................
.............................. CYCLE   10 ..............................
........................................................................

 iter      E             dE          RMSdq      gap      omega  full diag
   1    -91.5348695 -0.915349E+02  0.375E-02    1.66       0.0  T
   2    -91.5348714 -0.189095E-05  0.232E-02    1.66       1.0  T
   3    -91.5348677  0.377702E-05  0.793E-03    1.65       1.5  T
   4    -91.5348720 -0.431679E-05  0.204E-03    1.66       5.8  T
   5    -91.5348721 -0.179081E-06  0.105E-03    1.66      11.4  T
   6    -91.5348722 -0.393112E-07  0.397E-04    1.66      30.1  T
   7    -91.5348722 -0.537841E-08  0.172E-04    1.66      69.6  T
     SCC iter.                  ...        0 min,  0.051 sec
     gradient                   ...        0 min,  0.069 sec
 * total energy  :   -90.2756433 Eh     change       -0.3663958E-02 Eh
   gradient norm :     0.0469075 Eh/α   predicted    -0.3467987E-02 (  -5.35%)
   displ. norm   :     0.2288068 α      lambda       -0.5362462E-02
   maximum displ.:     0.1317243 α      in ANC's #7, #2, #14, ...

........................................................................
.............................. CYCLE   11 ..............................
........................................................................

 iter      E             dE          RMSdq      gap      omega  full diag
   1    -91.5378460 -0.915378E+02  0.572E-02    1.66       0.0  T
   2    -91.5378476 -0.159434E-05  0.343E-02    1.65       1.0  T
   3    -91.5378440  0.358167E-05  0.819E-03    1.65       1.5  T
   4    -91.5378479 -0.394033E-05  0.247E-03    1.65       4.8  T
   5    -91.5378481 -0.195176E-06  0.116E-03    1.65      10.3  T
   6    -91.5378482 -0.295330E-07  0.489E-04    1.65      24.5  T
   7    -91.5378482 -0.513309E-08  0.188E-04    1.65      63.5  T
     SCC iter.                  ...        0 min,  0.050 sec
     gradient                   ...        0 min,  0.073 sec
 * total energy  :   -90.2759606 Eh     change       -0.3172614E-03 Eh
   gradient norm :     0.1098486 Eh/α   predicted    -0.6132459E-03 (  93.29%)
   displ. norm   :     0.2661053 α      lambda       -0.7169135E-02
   maximum displ.:     0.1590685 α      in ANC's #7, #2, #5, ...

........................................................................
.............................. CYCLE   12 ..............................
........................................................................

 iter      E             dE          RMSdq      gap      omega  full diag
   1    -91.5394719 -0.915395E+02  0.405E-02    1.65       0.0  T
   2    -91.5394733 -0.139905E-05  0.237E-02    1.65       1.0  T
   3    -91.5394712  0.214303E-05  0.630E-03    1.64       1.9  T
   4    -91.5394737 -0.256416E-05  0.149E-03    1.64       8.0  T
   5    -91.5394738 -0.625427E-07  0.651E-04    1.64      18.4  T
   6    -91.5394738 -0.135128E-08  0.388E-04    1.64      30.8  T
     SCC iter.                  ...        0 min,  0.044 sec
     gradient                   ...        0 min,  0.075 sec
 * total energy  :   -90.2767675 Eh     change       -0.8068724E-03 Eh
   gradient norm :     0.0620290 Eh/α   predicted    -0.6964428E-03 ( -13.69%)
   displ. norm   :     0.3472136 α      lambda       -0.7971214E-02
   maximum displ.:     0.2013537 α      in ANC's #7, #2, #5, ...

........................................................................
.............................. CYCLE   13 ..............................
........................................................................

 iter      E             dE          RMSdq      gap      omega  full diag
   1    -91.5374166 -0.915374E+02  0.747E-02    1.64       0.0  T
   2    -91.5374195 -0.290432E-05  0.444E-02    1.63       1.0  T
   3    -91.5374121  0.733330E-05  0.112E-02    1.63       1.1  T
   4    -91.5374204 -0.822472E-05  0.282E-03    1.63       4.2  T
   5    -91.5374206 -0.202085E-06  0.152E-03    1.63       7.9  T
   6    -91.5374206 -0.774661E-07  0.589E-04    1.63      20.3  T
   7    -91.5374206 -0.602979E-08  0.222E-04    1.63      53.8  T
     SCC iter.                  ...        0 min,  0.053 sec
     gradient                   ...        0 min,  0.072 sec
 * total energy  :   -90.2775009 Eh     change       -0.7334597E-03 Eh
   gradient norm :     0.0446474 Eh/α   predicted    -0.6386295E-03 ( -12.93%)
   displ. norm   :     0.4330767 α      lambda       -0.8923297E-02
   maximum displ.:     0.2573506 α      in ANC's #7, #2, #14, ...

........................................................................
.............................. CYCLE   14 ..............................
........................................................................

 iter      E             dE          RMSdq      gap      omega  full diag
   1    -91.5372511 -0.915373E+02  0.599E-02    1.63       0.0  T
   2    -91.5372532 -0.205261E-05  0.355E-02    1.63       1.0  T
   3    -91.5372489  0.422718E-05  0.832E-03    1.63       1.4  T
   4    -91.5372535 -0.458009E-05  0.264E-03    1.62       4.5  T
   5    -91.5372538 -0.273783E-06  0.105E-03    1.62      11.3  T
   6    -91.5372538 -0.284771E-07  0.500E-04    1.62      23.9  T
   7    -91.5372538 -0.561782E-08  0.171E-04    1.62      70.0  T
     SCC iter.                  ...        0 min,  0.051 sec
     gradient                   ...        0 min,  0.076 sec
 * total energy  :   -90.2782123 Eh     change       -0.7113649E-03 Eh
   gradient norm :     0.0374920 Eh/α   predicted    -0.6238155E-03 ( -12.31%)
   displ. norm   :     0.5130853 α      lambda       -0.1050080E-01
   maximum displ.:     0.3048649 α      in ANC's #7, #2, #14, ...

........................................................................
.............................. CYCLE   15 ..............................
........................................................................

 iter      E             dE          RMSdq      gap      omega  full diag
   1    -91.5389364 -0.915389E+02  0.644E-02    1.63       0.0  T
   2    -91.5389389 -0.255301E-05  0.377E-02    1.62       1.0  T
   3    -91.5389324  0.654253E-05  0.106E-02    1.62       1.1  T
   4    -91.5389397 -0.731897E-05  0.267E-03    1.62       4.5  T
   5    -91.5389399 -0.226811E-06  0.121E-03    1.62       9.9  T
   6    -91.5389400 -0.521941E-07  0.518E-04    1.62      23.1  T
   7    -91.5389400 -0.709161E-08  0.171E-04    1.62      70.1  T
     SCC iter.                  ...        0 min,  0.053 sec
     gradient                   ...        0 min,  0.074 sec
 * total energy  :   -90.2789249 Eh     change       -0.7125866E-03 Eh
   gradient norm :     0.0230220 Eh/α   predicted    -0.6506589E-03 (  -8.69%)
   displ. norm   :     0.5719250 α      lambda       -0.9050660E-02
   maximum displ.:     0.3391279 α      in ANC's #7, #2, #14, ...

........................................................................
.............................. CYCLE   16 ..............................
........................................................................

 iter      E             dE          RMSdq      gap      omega  full diag
   1    -91.5398717 -0.915399E+02  0.716E-02    1.62       0.0  T
   2    -91.5398743 -0.266910E-05  0.420E-02    1.62       1.0  T
   3    -91.5398679  0.644553E-05  0.105E-02    1.62       1.1  T
   4    -91.5398750 -0.712629E-05  0.298E-03    1.62       4.0  T
   5    -91.5398753 -0.307781E-06  0.119E-03    1.62      10.0  T
   6    -91.5398753 -0.350827E-07  0.586E-04    1.62      20.4  T
   7    -91.5398754 -0.117962E-07  0.199E-04    1.62      60.0  T
     SCC iter.                  ...        0 min,  0.050 sec
     gradient                   ...        0 min,  0.075 sec
 * total energy  :   -90.2794560 Eh     change       -0.5310848E-03 Eh
   gradient norm :     0.0365421 Eh/α   predicted    -0.5034951E-03 (  -5.19%)
   displ. norm   :     0.5731528 α      lambda       -0.6330653E-02
   maximum displ.:     0.3408339 α      in ANC's #2, #7, #14, ...

........................................................................
.............................. CYCLE   17 ..............................
........................................................................

 iter      E             dE          RMSdq      gap      omega  full diag
   1    -91.5394349 -0.915394E+02  0.765E-02    1.62       0.0  T
   2    -91.5394376 -0.269693E-05  0.447E-02    1.62       1.0  T
   3    -91.5394288  0.876932E-05  0.122E-02    1.62       1.0  T
   4    -91.5394386 -0.976686E-05  0.288E-03    1.62       4.2  T
   5    -91.5394388 -0.246226E-06  0.132E-03    1.62       9.1  T
   6    -91.5394389 -0.569053E-07  0.560E-04    1.62      21.3  T
   7    -91.5394389 -0.105413E-07  0.185E-04    1.62      64.6  T
     SCC iter.                  ...        0 min,  0.050 sec
     gradient                   ...        0 min,  0.070 sec
 * total energy  :   -90.2797434 Eh     change       -0.2874613E-03 Eh
   gradient norm :     0.0360792 Eh/α   predicted    -0.3142655E-03 (   9.32%)
   displ. norm   :     0.5354399 α      lambda       -0.4424747E-02
   maximum displ.:     0.3376963 α      in ANC's #2, #7, #14, ...

........................................................................
.............................. CYCLE   18 ..............................
........................................................................

 iter      E             dE          RMSdq      gap      omega  full diag
   1    -91.5411129 -0.915411E+02  0.688E-02    1.62       0.0  T
   2    -91.5411148 -0.184713E-05  0.406E-02    1.62       1.0  T
   3    -91.5411107  0.406302E-05  0.795E-03    1.62       1.5  T
   4    -91.5411151 -0.440324E-05  0.291E-03    1.62       4.1  T
   5    -91.5411155 -0.354549E-06  0.115E-03    1.62      10.4  T
   6    -91.5411155 -0.227352E-07  0.501E-04    1.62      23.8  T
   7    -91.5411155 -0.818869E-08  0.192E-04    1.62      62.1  T
     SCC iter.                  ...        0 min,  0.046 sec
     gradient                   ...        0 min,  0.065 sec
 * total energy  :   -90.2798855 Eh     change       -0.1420455E-03 Eh
   gradient norm :     0.0820321 Eh/α   predicted    -0.2038312E-03 (  43.50%)
   displ. norm   :     0.3578642 α      lambda       -0.2156268E-02
   maximum displ.:     0.2354527 α      in ANC's #2, #7, #15, ...

........................................................................
.............................. CYCLE   19 ..............................
........................................................................

 iter      E             dE          RMSdq      gap      omega  full diag
   1    -91.5454830 -0.915455E+02  0.490E-02    1.62       0.0  T
   2    -91.5454841 -0.114055E-05  0.288E-02    1.62       1.0  T
   3    -91.5454832  0.863137E-06  0.429E-03    1.62       2.8  T
   4    -91.5454842 -0.989035E-06  0.180E-03    1.62       6.6  T
   5    -91.5454844 -0.135980E-06  0.743E-04    1.62      16.1  T
   6    -91.5454844 -0.130380E-07  0.340E-04    1.62      35.2  T
     SCC iter.                  ...        0 min,  0.040 sec
     gradient                   ...        0 min,  0.067 sec
 * total energy  :   -90.2800192 Eh     change       -0.1337418E-03 Eh
   gradient norm :     0.0366284 Eh/α   predicted    -0.1196981E-03 ( -10.50%)
   displ. norm   :     0.1989582 α      lambda       -0.1278720E-02
   maximum displ.:     0.1253002 α      in ANC's #2, #7, #15, ...

........................................................................
.............................. CYCLE   20 ..............................
........................................................................

 iter      E             dE          RMSdq      gap      omega  full diag
   1    -91.5459735 -0.915460E+02  0.326E-02    1.62       0.0  T
   2    -91.5459740 -0.531393E-06  0.192E-02    1.62       1.0  T
   3    -91.5459733  0.705210E-06  0.375E-03    1.62       3.2  T
   4    -91.5459742 -0.852130E-06  0.114E-03    1.62      10.5  T
   5    -91.5459742 -0.278760E-07  0.488E-04    1.62      24.5  T
   6    -91.5459742 -0.326355E-08  0.198E-04    1.62      60.3  T
     SCC iter.                  ...        0 min,  0.040 sec
     gradient                   ...        0 min,  0.066 sec
 * total energy  :   -90.2801290 Eh     change       -0.1097942E-03 Eh
   gradient norm :     0.0141498 Eh/α   predicted    -0.7619977E-04 ( -30.60%)
   displ. norm   :     0.2155444 α      lambda       -0.2114178E-02
   maximum displ.:     0.1008578 α      in ANC's #2, #5, #3, ...
 * RMSD in coord.:     0.5785865 α      energy gain  -0.2691755E-01 Eh

generating ANC from exact Hessian ...
Using Lindh-Hessian (1995)
 Shifting diagonal of input Hessian by    1.0048175111365749E-002
 Lowest  eigenvalues of input Hessian
    0.000000    0.010000    0.000000    0.000000    0.000000    0.000000
    0.000000    0.010142    0.010214    0.010467    0.010884    0.011243
    0.011361    0.011593    0.011694    0.012542    0.012919    0.013424
 Highest eigenvalues
    2.028594   17.597476   26.174568   30.799093   35.018625   48.734638


........................................................................
.............................. CYCLE   21 ..............................
........................................................................

 iter      E             dE          RMSdq      gap      omega  full diag
   1    -91.5468695 -0.915469E+02  0.328E-02    1.61       0.0  T
   2    -91.5468701 -0.538518E-06  0.193E-02    1.62       1.0  T
   3    -91.5468690  0.108310E-05  0.479E-03    1.62       2.5  T
   4    -91.5468702 -0.123155E-05  0.133E-03    1.62       9.0  T
   5    -91.5468703 -0.368308E-07  0.692E-04    1.62      17.3  T
   6    -91.5468703 -0.130495E-07  0.280E-04    1.62      42.7  T
     SCC iter.                  ...        0 min,  0.040 sec
     gradient                   ...        0 min,  0.067 sec
 * total energy  :   -90.2802810 Eh     change       -0.1519915E-03 Eh
   gradient norm :     0.0164686 Eh/α   predicted     0.0000000E+00 (-100.00%)
   displ. norm   :     0.0649138 α      lambda       -0.1462941E-03
   maximum displ.:     0.0278291 α      in ANC's #5, #4, #9, ...

........................................................................
.............................. CYCLE   22 ..............................
........................................................................

 iter      E             dE          RMSdq      gap      omega  full diag
   1    -91.5449014 -0.915449E+02  0.152E-02    1.62       0.0  T
   2    -91.5449017 -0.332960E-06  0.881E-03    1.62       1.4  T
   3    -91.5449012  0.482984E-06  0.325E-03    1.62       3.7  T
   4    -91.5449018 -0.605167E-06  0.666E-04    1.62      17.9  T
   5    -91.5449019 -0.136950E-07  0.299E-04    1.62      39.9  T
     SCC iter.                  ...        0 min,  0.032 sec
     gradient                   ...        0 min,  0.066 sec
 * total energy  :   -90.2802411 Eh     change        0.3989070E-04 Eh
   gradient norm :     0.0900557 Eh/α   predicted    -0.7367742E-04 (-284.70%)
   displ. norm   :     0.1097361 α      lambda       -0.3404198E-03
   maximum displ.:     0.0475951 α      in ANC's #5, #4, #9, ...

........................................................................
.............................. CYCLE   23 ..............................
........................................................................

 iter      E             dE          RMSdq      gap      omega  full diag
   1    -91.5419117 -0.915419E+02  0.229E-02    1.62       0.0  T
   2    -91.5419123 -0.676417E-06  0.134E-02    1.62       1.0  T
   3    -91.5419109  0.147425E-05  0.553E-03    1.62       2.2  T
   4    -91.5419126 -0.172113E-05  0.134E-03    1.62       8.9  T
   5    -91.5419127 -0.696132E-07  0.609E-04    1.62      19.6  T
   6    -91.5419127 -0.116312E-07  0.251E-04    1.62      47.6  T
     SCC iter.                  ...        0 min,  0.040 sec
     gradient                   ...        0 min,  0.065 sec
 * total energy  :   -90.2803670 Eh     change       -0.1259262E-03 Eh
   gradient norm :     0.0579081 Eh/α   predicted    -0.1723434E-03 (  36.86%)
   displ. norm   :     0.1131127 α      lambda       -0.4369650E-03
   maximum displ.:     0.0506498 α      in ANC's #5, #4, #6, ...

........................................................................
.............................. CYCLE   24 ..............................
........................................................................

 iter      E             dE          RMSdq      gap      omega  full diag
   1    -91.5403156 -0.915403E+02  0.266E-02    1.61       0.0  T
   2    -91.5403165 -0.981603E-06  0.162E-02    1.61       1.0  T
   3    -91.5403152  0.130490E-05  0.499E-03    1.61       2.4  T
   4    -91.5403167 -0.142054E-05  0.163E-03    1.61       7.3  T
   5    -91.5403168 -0.148833E-06  0.585E-04    1.61      20.4  T
   6    -91.5403168 -0.851747E-08  0.271E-04    1.61      44.1  T
     SCC iter.                  ...        0 min,  0.040 sec
     gradient                   ...        0 min,  0.066 sec
 * total energy  :   -90.2794834 Eh     change        0.8835941E-03 Eh
   gradient norm :     0.2744374 Eh/α   predicted    -0.2212782E-03 (-125.04%)
   displ. norm   :     0.0461412 α      lambda       -0.1917587E-02
   maximum displ.:     0.0159894 α      in ANC's #5, #28, #4, ...

........................................................................
.............................. CYCLE   25 ..............................
........................................................................

 iter      E             dE          RMSdq      gap      omega  full diag
   1    -91.5435200 -0.915435E+02  0.161E-02    1.62       0.0  T
   2    -91.5435209 -0.914841E-06  0.963E-03    1.62       1.2  T
   3    -91.5435204  0.474522E-06  0.411E-03    1.62       2.9  T
   4    -91.5435211 -0.663870E-06  0.119E-03    1.62      10.0  T
   5    -91.5435211 -0.492167E-07  0.559E-04    1.62      21.4  T
   6    -91.5435211 -0.117755E-07  0.233E-04    1.62      51.2  T
     SCC iter.                  ...        0 min,  0.040 sec
     gradient                   ...        0 min,  0.066 sec
 * total energy  :   -90.2804450 Eh     change       -0.9616149E-03 Eh
   gradient norm :     0.0346286 Eh/α   predicted    -0.9608850E-03 (  -0.08%)
   displ. norm   :     0.0446960 α      lambda       -0.2615595E-03
   maximum displ.:     0.0211741 α      in ANC's #4, #5, #6, ...

........................................................................
.............................. CYCLE   26 ..............................
........................................................................

 iter      E             dE          RMSdq      gap      omega  full diag
   1    -91.5443132 -0.915443E+02  0.985E-03    1.62       0.0  T
   2    -91.5443134 -0.208466E-06  0.588E-03    1.62       2.0  T
   3    -91.5443133  0.815006E-07  0.164E-03    1.62       7.3  T
   4    -91.5443134 -0.105464E-06  0.553E-04    1.62      21.6  T
   5    -91.5443134 -0.881029E-08  0.261E-04    1.62      45.7  T
     SCC iter.                  ...        0 min,  0.033 sec
     gradient                   ...        0 min,  0.068 sec
 * total energy  :   -90.2799435 Eh     change        0.5015882E-03 Eh
   gradient norm :     0.1869329 Eh/α   predicted    -0.1310960E-03 (-126.14%)
   displ. norm   :     0.0283270 α      lambda       -0.1078226E-02
   maximum displ.:     0.0119825 α      in ANC's #5, #4, #6, ...

........................................................................
.............................. CYCLE   27 ..............................
........................................................................

 iter      E             dE          RMSdq      gap      omega  full diag
   1    -91.5437974 -0.915438E+02  0.739E-03    1.62       0.0  T
   2    -91.5437976 -0.170160E-06  0.421E-03    1.61       2.8  T
   3    -91.5437975  0.696764E-07  0.181E-03    1.61       6.6  T
   4    -91.5437976 -0.990997E-07  0.484E-04    1.61      24.7  T
   5    -91.5437977 -0.101099E-07  0.192E-04    1.61      62.1  T
     SCC iter.                  ...        0 min,  0.033 sec
     gradient                   ...        0 min,  0.066 sec
 * total energy  :   -90.2804909 Eh     change       -0.5474845E-03 Eh
   gradient norm :     0.0141552 Eh/α   predicted    -0.5395469E-03 (  -1.45%)
   displ. norm   :     0.0546478 α      lambda       -0.5875017E-04
   maximum displ.:     0.0271936 α      in ANC's #4, #5, #6, ...

........................................................................
.............................. CYCLE   28 ..............................
........................................................................

 iter      E             dE          RMSdq      gap      omega  full diag
   1    -91.5437813 -0.915438E+02  0.102E-02    1.61       0.0  T
   2    -91.5437815 -0.126932E-06  0.582E-03    1.61       2.1  T
   3    -91.5437811  0.390252E-06  0.287E-03    1.61       4.2  T
   4    -91.5437816 -0.488075E-06  0.361E-04    1.61      33.1  T
   5    -91.5437816 -0.364477E-08  0.235E-04    1.61      50.8  T
     SCC iter.                  ...        0 min,  0.033 sec
     gradient                   ...        0 min,  0.066 sec
 * total energy  :   -90.2804526 Eh     change        0.3831821E-04 Eh
   gradient norm :     0.0570640 Eh/α   predicted    -0.2946271E-04 (-176.89%)
   displ. norm   :     0.0449197 α      lambda       -0.1276945E-03
   maximum displ.:     0.0215742 α      in ANC's #4, #5, #6, ...

........................................................................
.............................. CYCLE   29 ..............................
........................................................................

 iter      E             dE          RMSdq      gap      omega  full diag
   1    -91.5439181 -0.915439E+02  0.691E-03    1.61       0.0  T
   2    -91.5439182 -0.788012E-07  0.396E-03    1.61       3.0  T
   3    -91.5439180  0.173236E-06  0.207E-03    1.61       5.8  T
   4    -91.5439183 -0.232238E-06  0.236E-04    1.61      50.7  T
   5    -91.5439183 -0.151677E-08  0.134E-04    1.61      88.9  T
     SCC iter.                  ...        0 min,  0.033 sec
     gradient                   ...        0 min,  0.066 sec
 * total energy  :   -90.2805284 Eh     change       -0.7576101E-04 Eh
   gradient norm :     0.0080381 Eh/α   predicted    -0.6397819E-04 ( -15.55%)
   displ. norm   :     0.0821109 α      lambda       -0.3079071E-04
   maximum displ.:     0.0410961 α      in ANC's #4, #5, #6, ...

........................................................................
.............................. CYCLE   30 ..............................
........................................................................

 iter      E             dE          RMSdq      gap      omega  full diag
   1    -91.5440979 -0.915441E+02  0.118E-02    1.61       0.0  T
   2    -91.5440979 -0.427291E-07  0.696E-03    1.61       1.7  T
   3    -91.5440978  0.839082E-07  0.121E-03    1.61       9.9  T
   4    -91.5440979 -0.990113E-07  0.312E-04    1.61      38.4  T
   5    -91.5440979 -0.208910E-08  0.176E-04    1.61      67.7  T
     SCC iter.                  ...        0 min,  0.033 sec
     gradient                   ...        0 min,  0.065 sec
 * total energy  :   -90.2805496 Eh     change       -0.2125029E-04 Eh
   gradient norm :     0.0109049 Eh/α   predicted    -0.1550072E-04 ( -27.06%)
   displ. norm   :     0.2048781 α      lambda       -0.5920304E-04
   maximum displ.:     0.1005184 α      in ANC's #4, #6, #5, ...

........................................................................
.............................. CYCLE   31 ..............................
........................................................................

 iter      E             dE          RMSdq      gap      omega  full diag
   1    -91.5443926 -0.915444E+02  0.295E-02    1.60       0.0  T
   2    -91.5443929 -0.261716E-06  0.175E-02    1.60       1.0  T
   3    -91.5443917  0.114034E-05  0.431E-03    1.61       2.8  T
   4    -91.5443930 -0.128770E-05  0.838E-04    1.61      14.3  T
   5    -91.5443930 -0.151769E-07  0.487E-04    1.61      24.6  T
   6    -91.5443930 -0.623932E-08  0.204E-04    1.61      58.5  T
     SCC iter.                  ...        0 min,  0.040 sec
     gradient                   ...        0 min,  0.080 sec
 * total energy  :   -90.2805741 Eh     change       -0.2448703E-04 Eh
   gradient norm :     0.0244990 Eh/α   predicted    -0.3085200E-04 (  25.99%)
   displ. norm   :     0.0746995 α      lambda       -0.2975302E-04
   maximum displ.:     0.0397547 α      in ANC's #4, #1, #3, ...

........................................................................
.............................. CYCLE   32 ..............................
........................................................................

 iter      E             dE          RMSdq      gap      omega  full diag
   1    -91.5445412 -0.915445E+02  0.102E-02    1.61       0.0  T
   2    -91.5445413 -0.476019E-07  0.598E-03    1.61       2.0  T
   3    -91.5445412  0.107272E-06  0.138E-03    1.61       8.7  T
   4    -91.5445413 -0.126142E-06  0.299E-04    1.61      39.9  T
   5    -91.5445413 -0.191062E-08  0.158E-04    1.61      75.7  T
     SCC iter.                  ...        0 min,  0.033 sec
     gradient                   ...        0 min,  0.065 sec
 * total energy  :   -90.2805951 Eh     change       -0.2098936E-04 Eh
   gradient norm :     0.0084052 Eh/α   predicted    -0.1496287E-04 ( -28.71%)
   displ. norm   :     0.0842022 α      lambda       -0.1966023E-04
   maximum displ.:     0.0450978 α      in ANC's #4, #1, #3, ...

........................................................................
.............................. CYCLE   33 ..............................
........................................................................

 iter      E             dE          RMSdq      gap      omega  full diag
   1    -91.5448619 -0.915449E+02  0.104E-02    1.61       0.0  T
   2    -91.5448619 -0.455194E-07  0.607E-03    1.61       2.0  T
   3    -91.5448618  0.124352E-06  0.151E-03    1.61       7.9  T
   4    -91.5448620 -0.142719E-06  0.357E-04    1.61      33.5  T
   5    -91.5448620 -0.352320E-08  0.181E-04    1.61      66.1  T
     SCC iter.                  ...        0 min,  0.033 sec
     gradient                   ...        0 min,  0.066 sec
 * total energy  :   -90.2806104 Eh     change       -0.1528485E-04 Eh
   gradient norm :     0.0055780 Eh/α   predicted    -0.9900809E-05 ( -35.22%)
   displ. norm   :     0.1237172 α      lambda       -0.2389981E-04
   maximum displ.:     0.0641372 α      in ANC's #4, #1, #3, ...

........................................................................
.............................. CYCLE   34 ..............................
........................................................................

 iter      E             dE          RMSdq      gap      omega  full diag
   1    -91.5451095 -0.915451E+02  0.145E-02    1.61       0.0  T
   2    -91.5451096 -0.795475E-07  0.847E-03    1.61       1.4  T
   3    -91.5451093  0.271827E-06  0.226E-03    1.61       5.3  T
   4    -91.5451096 -0.303862E-06  0.568E-04    1.61      21.0  T
   5    -91.5451096 -0.975045E-08  0.265E-04    1.61      45.1  T
     SCC iter.                  ...        0 min,  0.033 sec
     gradient                   ...        0 min,  0.065 sec
 * total energy  :   -90.2806305 Eh     change       -0.2013747E-04 Eh
   gradient norm :     0.0130819 Eh/α   predicted    -0.1213337E-04 ( -39.75%)
   displ. norm   :     0.2087017 α      lambda       -0.3809328E-04
   maximum displ.:     0.1058876 α      in ANC's #4, #1, #3, ...

........................................................................
.............................. CYCLE   35 ..............................
........................................................................

 iter      E             dE          RMSdq      gap      omega  full diag
   1    -91.5451200 -0.915451E+02  0.238E-02    1.61       0.0  T
   2    -91.5451201 -0.185649E-06  0.139E-02    1.61       1.0  T
   3    -91.5451195  0.614726E-06  0.343E-03    1.61       3.5  T
   4    -91.5451202 -0.686778E-06  0.934E-04    1.61      12.8  T
   5    -91.5451202 -0.233775E-07  0.428E-04    1.61      27.9  T
     SCC iter.                  ...        0 min,  0.033 sec
     gradient                   ...        0 min,  0.067 sec
 * total energy  :   -90.2806625 Eh     change       -0.3199792E-04 Eh
   gradient norm :     0.0161210 Eh/α   predicted    -0.1987404E-04 ( -37.89%)
   displ. norm   :     0.2803143 α      lambda       -0.4551511E-04
   maximum displ.:     0.1427874 α      in ANC's #4, #1, #3, ...

........................................................................
.............................. CYCLE   36 ..............................
........................................................................

 iter      E             dE          RMSdq      gap      omega  full diag
   1    -91.5447325 -0.915447E+02  0.311E-02    1.62       0.0  T
   2    -91.5447328 -0.273265E-06  0.182E-02    1.62       1.0  T
   3    -91.5447322  0.604069E-06  0.355E-03    1.62       3.4  T
   4    -91.5447329 -0.692346E-06  0.117E-03    1.62      10.2  T
   5    -91.5447329 -0.298825E-07  0.536E-04    1.62      22.3  T
   6    -91.5447329 -0.803085E-08  0.207E-04    1.62      57.8  T
     SCC iter.                  ...        0 min,  0.039 sec
     gradient                   ...        0 min,  0.077 sec
 * total energy  :   -90.2806987 Eh     change       -0.3618918E-04 Eh
   gradient norm :     0.0122254 Eh/α   predicted    -0.2454196E-04 ( -32.18%)
   displ. norm   :     0.2567394 α      lambda       -0.3518603E-04
   maximum displ.:     0.1314967 α      in ANC's #4, #1, #3, ...

........................................................................
.............................. CYCLE   37 ..............................
........................................................................

 iter      E             dE          RMSdq      gap      omega  full diag
   1    -91.5445348 -0.915445E+02  0.273E-02    1.62       0.0  T
   2    -91.5445350 -0.195541E-06  0.160E-02    1.62       1.0  T
   3    -91.5445348  0.172369E-06  0.219E-03    1.62       5.5  T
   4    -91.5445350 -0.218565E-06  0.965E-04    1.62      12.4  T
   5    -91.5445351 -0.203754E-07  0.420E-04    1.62      28.4  T
     SCC iter.                  ...        0 min,  0.035 sec
     gradient                   ...        0 min,  0.066 sec
 * total energy  :   -90.2807260 Eh     change       -0.2728300E-04 Eh
   gradient norm :     0.0040198 Eh/α   predicted    -0.1875235E-04 ( -31.27%)
   displ. norm   :     0.2239697 α      lambda       -0.2835873E-04
   maximum displ.:     0.1192904 α      in ANC's #4, #1, #3, ...

........................................................................
.............................. CYCLE   38 ..............................
........................................................................

 iter      E             dE          RMSdq      gap      omega  full diag
   1    -91.5443341 -0.915443E+02  0.216E-02    1.62       0.0  T
   2    -91.5443342 -0.142944E-06  0.128E-02    1.62       1.0  T
   3    -91.5443341  0.149697E-06  0.186E-03    1.62       6.4  T
   4    -91.5443343 -0.193063E-06  0.695E-04    1.62      17.2  T
   5    -91.5443343 -0.892736E-08  0.304E-04    1.62      39.3  T
     SCC iter.                  ...        0 min,  0.034 sec
     gradient                   ...        0 min,  0.066 sec
 * total energy  :   -90.2807477 Eh     change       -0.2172311E-04 Eh
   gradient norm :     0.0134632 Eh/α   predicted    -0.1489032E-04 ( -31.45%)
   displ. norm   :     0.2687845 α      lambda       -0.4002298E-04
   maximum displ.:     0.1396476 α      in ANC's #4, #1, #3, ...

........................................................................
.............................. CYCLE   39 ..............................
........................................................................

 iter      E             dE          RMSdq      gap      omega  full diag
   1    -91.5447195 -0.915447E+02  0.258E-02    1.63       0.0  T
   2    -91.5447197 -0.193480E-06  0.152E-02    1.63       1.0  T
   3    -91.5447195  0.218336E-06  0.221E-03    1.63       5.4  T
   4    -91.5447198 -0.265439E-06  0.874E-04    1.63      13.7  T
   5    -91.5447198 -0.209174E-07  0.412E-04    1.63      29.0  T
     SCC iter.                  ...        0 min,  0.032 sec
     gradient                   ...        0 min,  0.066 sec
 * total energy  :   -90.2807741 Eh     change       -0.2637202E-04 Eh
   gradient norm :     0.0129754 Eh/α   predicted    -0.2145663E-04 ( -18.64%)
   displ. norm   :     0.2974540 α      lambda       -0.3662967E-04
   maximum displ.:     0.1644610 α      in ANC's #4, #1, #3, ...

........................................................................
.............................. CYCLE   40 ..............................
........................................................................

 iter      E             dE          RMSdq      gap      omega  full diag
   1    -91.5441643 -0.915442E+02  0.268E-02    1.63       0.0  T
   2    -91.5441646 -0.220704E-06  0.159E-02    1.63       1.0  T
   3    -91.5441644  0.192839E-06  0.218E-03    1.63       5.5  T
   4    -91.5441646 -0.249597E-06  0.856E-04    1.63      14.0  T
   5    -91.5441646 -0.175356E-07  0.390E-04    1.63      30.7  T
     SCC iter.                  ...        0 min,  0.033 sec
     gradient                   ...        0 min,  0.068 sec
 * total energy  :   -90.2808012 Eh     change       -0.2707108E-04 Eh
   gradient norm :     0.0147967 Eh/α   predicted    -0.1993293E-04 ( -26.37%)
   displ. norm   :     0.2466482 α      lambda       -0.3322693E-04
   maximum displ.:     0.1370122 α      in ANC's #4, #1, #3, ...

........................................................................
.............................. CYCLE   41 ..............................
........................................................................

 iter      E             dE          RMSdq      gap      omega  full diag
   1    -91.5440813 -0.915441E+02  0.218E-02    1.64       0.0  T
   2    -91.5440814 -0.133055E-06  0.129E-02    1.64       1.0  T
   3    -91.5440814  0.705680E-07  0.148E-03    1.64       8.1  T
   4    -91.5440815 -0.994082E-07  0.721E-04    1.64      16.6  T
   5    -91.5440815 -0.144187E-07  0.275E-04    1.64      43.5  T
     SCC iter.                  ...        0 min,  0.034 sec
     gradient                   ...        0 min,  0.067 sec
 * total energy  :   -90.2808273 Eh     change       -0.2612010E-04 Eh
   gradient norm :     0.0125417 Eh/α   predicted    -0.1762344E-04 ( -32.53%)
   displ. norm   :     0.2486765 α      lambda       -0.3617263E-04
   maximum displ.:     0.1389144 α      in ANC's #1, #4, #3, ...

........................................................................
.............................. CYCLE   42 ..............................
........................................................................

 iter      E             dE          RMSdq      gap      omega  full diag
   1    -91.5442513 -0.915443E+02  0.232E-02    1.64       0.0  T
   2    -91.5442514 -0.136387E-06  0.136E-02    1.64       1.0  T
   3    -91.5442512  0.243811E-06  0.219E-03    1.64       5.5  T
   4    -91.5442514 -0.282884E-06  0.815E-04    1.64      14.7  T
   5    -91.5442515 -0.163925E-07  0.347E-04    1.64      34.4  T
     SCC iter.                  ...        0 min,  0.033 sec
     gradient                   ...        0 min,  0.065 sec
 * total energy  :   -90.2808526 Eh     change       -0.2533874E-04 Eh
   gradient norm :     0.0025599 Eh/α   predicted    -0.1920304E-04 ( -24.21%)
   displ. norm   :     0.1860679 α      lambda       -0.1815863E-04
   maximum displ.:     0.1077722 α      in ANC's #1, #4, #3, ...
 * RMSD in coord.:     0.2913782 α      energy gain  -0.7236311E-03 Eh

generating ANC from exact Hessian ...
Using Lindh-Hessian (1995)
 Shifting diagonal of input Hessian by    1.0085093517802630E-002
 Lowest  eigenvalues of input Hessian
    0.010000    0.000000    0.000000    0.000000    0.000000    0.000000
    0.000000    0.010171    0.010251    0.010485    0.010855    0.011313
    0.011365    0.011508    0.011792    0.012496    0.012931    0.013324
 Highest eigenvalues
    2.025143   17.600179   26.175367   30.800717   35.016172   48.733117


........................................................................
.............................. CYCLE   43 ..............................
........................................................................

 iter      E             dE          RMSdq      gap      omega  full diag
   1    -91.5443391 -0.915443E+02  0.169E-02    1.64       0.0  T
   2    -91.5443392 -0.743060E-07  0.101E-02    1.64       1.2  T
   3    -91.5443386  0.559922E-06  0.308E-03    1.65       3.9  T
   4    -91.5443392 -0.617375E-06  0.561E-04    1.65      21.3  T
   5    -91.5443392 -0.740418E-08  0.264E-04    1.65      45.3  T
     SCC iter.                  ...        0 min,  0.034 sec
     gradient                   ...        0 min,  0.066 sec
 * total energy  :   -90.2808662 Eh     change       -0.1361805E-04 Eh
   gradient norm :     0.0040873 Eh/α   predicted     0.0000000E+00 (-100.00%)
   displ. norm   :     0.0181059 α      lambda        0.1599917E-04
   maximum displ.:     0.0068643 α      in ANC's #8, #10, #14, ...

........................................................................
.............................. CYCLE   44 ..............................
........................................................................

 iter      E             dE          RMSdq      gap      omega  full diag
   1    -91.5446617 -0.915447E+02  0.339E-03    1.65       0.0  T
   2    -91.5446617 -0.189251E-07  0.198E-03    1.65       6.0  T
   3    -91.5446617  0.380191E-07  0.911E-04    1.65      13.1  T
   4    -91.5446617 -0.475473E-07  0.174E-04    1.65      68.7  T
     SCC iter.                  ...        0 min,  0.026 sec
     gradient                   ...        0 min,  0.066 sec
 * total energy  :   -90.2808649 Eh     change        0.1299774E-05 Eh
   gradient norm :     0.0202174 Eh/α   predicted    -0.4228504E-05 (-425.33%)
   displ. norm   :     0.0346387 α      lambda       -0.1933264E-04
   maximum displ.:     0.0130800 α      in ANC's #8, #10, #14, ...

........................................................................
.............................. CYCLE   45 ..............................
........................................................................

 iter      E             dE          RMSdq      gap      omega  full diag
   1    -91.5451837 -0.915452E+02  0.617E-03    1.65       0.0  T
   2    -91.5451838 -0.239689E-07  0.365E-03    1.65       3.3  T
   3    -91.5451835  0.217847E-06  0.204E-03    1.65       5.9  T
   4    -91.5451838 -0.246614E-06  0.270E-04    1.65      44.2  T
   5    -91.5451838 -0.101063E-08  0.141E-04    1.65      84.5  T
     SCC iter.                  ...        0 min,  0.033 sec
     gradient                   ...        0 min,  0.066 sec
 * total energy  :   -90.2808710 Eh     change       -0.6007162E-05 Eh
   gradient norm :     0.0208378 Eh/α   predicted    -0.9745074E-05 (  62.22%)
   displ. norm   :     0.0751855 α      lambda       -0.4657891E-04
   maximum displ.:     0.0285965 α      in ANC's #10, #8, #14, ...

........................................................................
.............................. CYCLE   46 ..............................
........................................................................

 iter      E             dE          RMSdq      gap      omega  full diag
   1    -91.5457550 -0.915458E+02  0.131E-02    1.64       0.0  T
   2    -91.5457551 -0.102833E-06  0.772E-03    1.64       1.5  T
   3    -91.5457544  0.724793E-06  0.373E-03    1.64       3.2  T
   4    -91.5457552 -0.818475E-06  0.555E-04    1.64      21.5  T
   5    -91.5457552 -0.333623E-08  0.317E-04    1.64      37.7  T
     SCC iter.                  ...        0 min,  0.032 sec
     gradient                   ...        0 min,  0.065 sec
 * total energy  :   -90.2808275 Eh     change        0.4344749E-04 Eh
   gradient norm :     0.0553113 Eh/α   predicted    -0.2346419E-04 (-154.01%)
   displ. norm   :     0.0288175 α      lambda       -0.1094195E-03
   maximum displ.:     0.0112923 α      in ANC's #8, #14, #10, ...

........................................................................
.............................. CYCLE   47 ..............................
........................................................................

 iter      E             dE          RMSdq      gap      omega  full diag
   1    -91.5451983 -0.915452E+02  0.629E-03    1.65       0.0  T
   2    -91.5451984 -0.519056E-07  0.371E-03    1.65       3.2  T
   3    -91.5451983  0.730179E-07  0.127E-03    1.65       9.4  T
   4    -91.5451984 -0.821902E-07  0.336E-04    1.65      35.6  T
   5    -91.5451984 -0.332957E-08  0.152E-04    1.65      78.5  T
     SCC iter.                  ...        0 min,  0.033 sec
     gradient                   ...        0 min,  0.066 sec
 * total energy  :   -90.2808747 Eh     change       -0.4716195E-04 Eh
   gradient norm :     0.0199497 Eh/α   predicted    -0.5479106E-04 (  16.18%)
   displ. norm   :     0.0207202 α      lambda       -0.6163335E-04
   maximum displ.:     0.0086946 α      in ANC's #14, #8, #10, ...

........................................................................
.............................. CYCLE   48 ..............................
........................................................................

 iter      E             dE          RMSdq      gap      omega  full diag
   1    -91.5446030 -0.915446E+02  0.730E-03    1.64       0.0  T
   2    -91.5446032 -0.206344E-06  0.384E-03    1.64       3.1  T
   3    -91.5446031  0.113671E-06  0.284E-03    1.64       4.2  T
   4    -91.5446033 -0.276555E-06  0.578E-04    1.64      20.7  T
   5    -91.5446034 -0.129287E-07  0.243E-04    1.64      49.2  T
     SCC iter.                  ...        0 min,  0.034 sec
     gradient                   ...        0 min,  0.066 sec
 * total energy  :   -90.2807899 Eh     change        0.8473277E-04 Eh
   gradient norm :     0.0721032 Eh/α   predicted    -0.3084523E-04 (-136.40%)
   displ. norm   :     0.0301454 α      lambda       -0.1904197E-03
   maximum displ.:     0.0113220 α      in ANC's #10, #8, #3, ...

........................................................................
.............................. CYCLE   49 ..............................
........................................................................

 iter      E             dE          RMSdq      gap      omega  full diag
   1    -91.5449820 -0.915450E+02  0.693E-03    1.65       0.0  T
   2    -91.5449821 -0.105737E-06  0.382E-03    1.64       3.1  T
   3    -91.5449819  0.186269E-06  0.258E-03    1.65       4.6  T
   4    -91.5449822 -0.278459E-06  0.466E-04    1.64      25.6  T
   5    -91.5449822 -0.907458E-08  0.195E-04    1.64      61.2  T
     SCC iter.                  ...        0 min,  0.033 sec
     gradient                   ...        0 min,  0.065 sec
 * total energy  :   -90.2808776 Eh     change       -0.8768578E-04 Eh
   gradient norm :     0.0164200 Eh/α   predicted    -0.9530319E-04 (   8.69%)
   displ. norm   :     0.0304018 α      lambda       -0.4798283E-04
   maximum displ.:     0.0120807 α      in ANC's #3, #10, #8, ...

........................................................................
.............................. CYCLE   50 ..............................
........................................................................

 iter      E             dE          RMSdq      gap      omega  full diag
   1    -91.5452785 -0.915453E+02  0.553E-03    1.64       0.0  T
   2    -91.5452785 -0.533840E-07  0.324E-03    1.64       3.7  T
   3    -91.5452783  0.160350E-06  0.206E-03    1.64       5.8  T
   4    -91.5452785 -0.203158E-06  0.416E-04    1.64      28.8  T
   5    -91.5452786 -0.598084E-08  0.189E-04    1.64      63.1  T
     SCC iter.                  ...        0 min,  0.033 sec
     gradient                   ...        0 min,  0.066 sec
 * total energy  :   -90.2808326 Eh     change        0.4497667E-04 Eh
   gradient norm :     0.0459740 Eh/α   predicted    -0.2402364E-04 (-153.41%)
   displ. norm   :     0.0084220 α      lambda       -0.1054272E-03
   maximum displ.:     0.0034310 α      in ANC's #14, #8, #10, ...

........................................................................
.............................. CYCLE   51 ..............................
........................................................................

 iter      E             dE          RMSdq      gap      omega  full diag
   1    -91.5450547 -0.915451E+02  0.286E-03    1.64       0.0  T
   2    -91.5450547 -0.468758E-07  0.162E-03    1.64       7.4  T
   3    -91.5450547  0.103165E-07  0.110E-03    1.64      10.8  T
   4    -91.5450547 -0.351021E-07  0.325E-04    1.64      36.8  T
   5    -91.5450547 -0.414470E-08  0.130E-04    1.64      92.1  T
     SCC iter.                  ...        0 min,  0.033 sec
     gradient                   ...        0 min,  0.067 sec
 * total energy  :   -90.2808832 Eh     change       -0.5054999E-04 Eh
   gradient norm :     0.0116139 Eh/α   predicted    -0.5288962E-04 (   4.63%)
   displ. norm   :     0.0078231 α      lambda       -0.2533939E-04
   maximum displ.:     0.0029969 α      in ANC's #3, #23, #2, ...

........................................................................
.............................. CYCLE   52 ..............................
........................................................................

 iter      E             dE          RMSdq      gap      omega  full diag
   1    -91.5449193 -0.915449E+02  0.259E-03    1.64       0.0  T
   2    -91.5449193 -0.218943E-07  0.161E-03    1.64       7.4  T
   3    -91.5449193  0.340818E-07  0.998E-04    1.65      12.0  T
   4    -91.5449193 -0.466042E-07  0.238E-04    1.65      50.3  T
     SCC iter.                  ...        0 min,  0.027 sec
     gradient                   ...        0 min,  0.065 sec
 * total energy  :   -90.2808425 Eh     change        0.4066031E-04 Eh
   gradient norm :     0.0476504 Eh/α   predicted    -0.1267256E-04 (-131.17%)
   displ. norm   :     0.0086658 α      lambda       -0.8724852E-04
   maximum displ.:     0.0032967 α      in ANC's #3, #10, #8, ...

........................................................................
.............................. CYCLE   53 ..............................
........................................................................

 iter      E             dE          RMSdq      gap      omega  full diag
   1    -91.5450140 -0.915450E+02  0.207E-03    1.64       0.0  T
   2    -91.5450140 -0.149797E-07  0.126E-03    1.64       9.5  T
   3    -91.5450140  0.174452E-07  0.743E-04    1.64      16.1  T
   4    -91.5450140 -0.246899E-07  0.195E-04    1.64      61.2  T
     SCC iter.                  ...        0 min,  0.028 sec
     gradient                   ...        0 min,  0.066 sec
 * total energy  :   -90.2808866 Eh     change       -0.4406289E-04 Eh
   gradient norm :     0.0004979 Eh/α   predicted    -0.4364450E-04 (  -0.95%)
   displ. norm   :     0.0135335 α      lambda        0.8471523E-04
   maximum displ.:     0.0053001 α      in ANC's #3, #10, #8, ...

........................................................................
.............................. CYCLE   54 ..............................
........................................................................

 iter      E             dE          RMSdq      gap      omega  full diag
   1    -91.5451529 -0.915452E+02  0.318E-03    1.64       0.0  T
   2    -91.5451529 -0.258150E-07  0.199E-03    1.64       6.0  T
   3    -91.5451529  0.588604E-07  0.136E-03    1.64       8.8  T
   4    -91.5451529 -0.862956E-07  0.284E-04    1.64      42.1  T
   5    -91.5451529 -0.280218E-08  0.133E-04    1.64      89.5  T
     SCC iter.                  ...        0 min,  0.033 sec
     gradient                   ...        0 min,  0.066 sec
 * total energy  :   -90.2807907 Eh     change        0.9594602E-04 Eh
   gradient norm :     0.0707084 Eh/α   predicted     0.4236382E-04 ( -55.85%)
   displ. norm   :     0.0060609 α      lambda       -0.1287153E-03
   maximum displ.:     0.0022008 α      in ANC's #3, #23, #14, ...

........................................................................
.............................. CYCLE   55 ..............................
........................................................................

 iter      E             dE          RMSdq      gap      omega  full diag
   1    -91.5450574 -0.915451E+02  0.204E-03    1.64       0.0  T
   2    -91.5450574 -0.118176E-07  0.127E-03    1.64       9.4  T
   3    -91.5450574  0.234852E-07  0.811E-04    1.64      14.7  T
   4    -91.5450574 -0.316743E-07  0.182E-04    1.64      65.7  T
     SCC iter.                  ...        0 min,  0.027 sec
     gradient                   ...        0 min,  0.067 sec
 * total energy  :   -90.2808767 Eh     change       -0.8607387E-04 Eh
   gradient norm :     0.0236817 Eh/α   predicted    -0.6437357E-04 ( -25.21%)
   displ. norm   :     0.0110529 α      lambda       -0.2274032E-04
   maximum displ.:     0.0062985 α      in ANC's #3, #2, #4, ...

........................................................................
.............................. CYCLE   56 ..............................
........................................................................

 iter      E             dE          RMSdq      gap      omega  full diag
   1    -91.5450070 -0.915450E+02  0.182E-03    1.64       0.0  T
   2    -91.5450070 -0.285293E-08  0.110E-03    1.64      10.9  T
   3    -91.5450070  0.199689E-07  0.619E-04    1.64      19.3  T
   4    -91.5450070 -0.227726E-07  0.955E-05    1.64     125.1  T
     SCC iter.                  ...        0 min,  0.027 sec
     gradient                   ...        0 min,  0.067 sec
 * total energy  :   -90.2808884 Eh     change       -0.1169556E-04 Eh
   gradient norm :     0.0004270 Eh/α   predicted    -0.1137661E-04 (  -2.73%)
   displ. norm   :     0.0134846 α      lambda       -0.6397007E-06
   maximum displ.:     0.0077683 α      in ANC's #3, #2, #4, ...

........................................................................
.............................. CYCLE   57 ..............................
........................................................................

 iter      E             dE          RMSdq      gap      omega  full diag
   1    -91.5450059 -0.915450E+02  0.174E-03    1.64       0.0  T
   2    -91.5450059 -0.106770E-08  0.101E-03    1.64      11.8  T
   3    -91.5450059  0.152457E-08  0.175E-04    1.64      68.3  T
   4    -91.5450059 -0.186833E-08  0.607E-05    1.64     196.9  T
     SCC iter.                  ...        0 min,  0.026 sec
     gradient                   ...        0 min,  0.067 sec
 * total energy  :   -90.2808893 Eh     change       -0.9128294E-06 Eh
   gradient norm :     0.0012277 Eh/α   predicted    -0.3216291E-06 ( -64.77%)
   displ. norm   :     0.0620140 α      lambda       -0.2941075E-05
   maximum displ.:     0.0324717 α      in ANC's #3, #2, #4, ...

........................................................................
.............................. CYCLE   58 ..............................
........................................................................

 iter      E             dE          RMSdq      gap      omega  full diag
   1    -91.5449374 -0.915449E+02  0.798E-03    1.64       0.0  T
   2    -91.5449374 -0.225024E-07  0.463E-03    1.64       2.6  T
   3    -91.5449374  0.613139E-07  0.103E-03    1.64      11.6  T
   4    -91.5449374 -0.689854E-07  0.350E-04    1.64      34.1  T
   5    -91.5449374 -0.328025E-08  0.155E-04    1.64      77.2  T
     SCC iter.                  ...        0 min,  0.033 sec
     gradient                   ...        0 min,  0.066 sec
 * total energy  :   -90.2808929 Eh     change       -0.3581389E-05 Eh
   gradient norm :     0.0005630 Eh/α   predicted    -0.1478598E-05 ( -58.71%)
   displ. norm   :     0.0966854 α      lambda       -0.3035685E-05
   maximum displ.:     0.0510414 α      in ANC's #3, #2, #4, ...

   *** GEOMETRY OPTIMIZATION CONVERGED AFTER 58 ITERATIONS ***

------------------------------------------------------------------------
 total energy gain   :        -0.0276815 Eh      -17.3704 kcal/mol
 total RMSD          :         0.7179025 a0        0.3799 Å
 total power (kW/mol):        -1.2530636 (step)   -9.4576 (real)
[...]
         1        2.0000           -0.7163142             -19.4919
       ...           ...                  ...                  ...
        72        2.0000           -0.4163424             -11.3293
        73        2.0000           -0.4155290             -11.3071
        74        2.0000           -0.4136435             -11.2558
        75        2.0000           -0.4107573             -11.1773
        76        2.0000           -0.4050133             -11.0210
        77        2.0000           -0.4033978             -10.9770
        78        2.0000           -0.3870154             -10.5312
        79        2.0000           -0.3855883             -10.4924
        80        2.0000           -0.3828107             -10.4168
        81        2.0000           -0.3769148             -10.2564
        82        2.0000           -0.3732748             -10.1573
        83        2.0000           -0.3692360             -10.0474
        84        2.0000           -0.3111876              -8.4678 (HOMO)
        85                         -0.2507611              -6.8236 (LUMO)
        86                         -0.2049866              -5.5780
        87                         -0.1992828              -5.4228
        88                         -0.1854626              -5.0467
        89                         -0.1739178              -4.7325
        90                         -0.1267771              -3.4498
        91                         -0.1045329              -2.8445
        92                         -0.0812396              -2.2106
        93                         -0.0595674              -1.6209
        94                          0.0080146               0.2181
        95                          0.0105351               0.2867
       ...                                ...                  ...
       168                          0.6996343              19.0380
      -------------------------------------------------------------
                  HL-Gap            0.0604266 Eh            1.6443 eV
             Fermi-level           -0.2809743 Eh           -7.6457 eV

     #   Z          covCN         q      C6AA      α(0)
     1   6 C        2.917    -0.039    28.961     8.825
     2   6 C        2.925    -0.049    29.224     8.865
     3   6 C        2.882    -0.077    29.933     8.969
     4   6 C        2.915     0.070    26.423     8.429
     5   6 C        2.922    -0.049    29.224     8.865
     6   6 C        2.918    -0.039    28.969     8.826
     7   1 H        0.926     0.017     2.776     2.606
     8   1 H        0.926     0.031     2.565     2.505
     9   1 H        0.926     0.029     2.594     2.518
    10   1 H        0.925     0.018     2.766     2.601
    11   5 B        4.003     0.177    19.733     7.158
    12   1 H        1.561     0.048     2.335     2.386
    13   6 C        3.079    -0.058    29.362     8.884
    14   6 C        3.132    -0.048    28.963     8.810
    15   6 C        3.106    -0.051    29.118     8.841
    16   1 H        0.926     0.037     2.488     2.467
    17   6 C        2.940    -0.030    28.743     8.793
    18   1 H        0.926     0.027     2.624     2.533
    19   1 H        0.926     0.039     2.457     2.451
    20   1 H        0.936    -0.090     5.217     3.571
    21   5 B        3.390     0.447    15.089     6.475
    22   8 O        1.637    -0.367    20.225     6.071
    23   8 O        1.637    -0.370    20.289     6.080
    24   6 C        3.851     0.130    18.449     6.109
    25   6 C        3.847     0.129    18.458     6.111
    26   6 C        3.756    -0.120    22.850     6.816
    27   1 H        0.925     0.060     2.200     2.320
    28   1 H        0.925     0.045     2.377     2.411
    29   1 H        0.925     0.051     2.307     2.375
    30   6 C        3.756    -0.119    22.827     6.812
    31   1 H        0.925     0.059     2.216     2.328
    32   1 H        0.925     0.049     2.333     2.389
    33   1 H        0.925     0.044     2.391     2.418
    34   6 C        3.755    -0.118    22.818     6.811
    35   1 H        0.925     0.057     2.237     2.339
    36   1 H        0.925     0.044     2.392     2.419
    37   1 H        0.925     0.053     2.281     2.362
    38   6 C        3.755    -0.119    22.827     6.812
    39   1 H        0.925     0.047     2.361     2.403
    40   1 H        0.925     0.057     2.229     2.335
    41   1 H        0.925     0.046     2.365     2.405
    42   7 N        2.743    -0.183    24.969     7.421
    43   6 C        3.839     0.083    19.175     6.229
    44   6 C        3.839     0.083    19.181     6.230
    45  16 S        2.335    -0.013   141.612    20.029
    46   6 C        3.816    -0.069    21.807     6.646
    47   6 C        3.765    -0.115    22.751     6.798
    48   6 C        3.758    -0.112    22.688     6.791
    49   6 C        3.803    -0.051    21.487     6.599
    50   1 H        0.924     0.041     2.435     2.440
    51   1 H        0.924     0.029     2.596     2.520
    52   6 C        3.816    -0.068    21.789     6.644
    53   1 H        0.924     0.025     2.652     2.547
    54   1 H        0.924     0.030     2.588     2.516
    55   1 H        0.924     0.039     2.457     2.451
    56   1 H        0.924     0.029     2.604     2.524
    57   6 C        3.758    -0.112    22.700     6.793
    58   6 C        3.764    -0.116    22.759     6.800
    59   1 H        0.925     0.034     2.526     2.485
    60   1 H        0.925     0.034     2.523     2.484
    61   1 H        0.925     0.041     2.430     2.438
    62   1 H        0.925     0.027     2.627     2.535
    63   1 H        0.925     0.033     2.543     2.494
    64   1 H        0.925     0.034     2.532     2.489
    65   1 H        0.925     0.045     2.381     2.413
    66   1 H        0.925     0.033     2.538     2.492
    67   1 H        0.925     0.033     2.541     2.493
    68   1 H        0.925     0.032     2.558     2.501
    69   1 H        0.925     0.027     2.624     2.533
    70   1 H        0.925     0.034     2.530     2.488

 Mol. C6AA /au·bohr⁶  :      47976.035097
 Mol. C8AA /au·bohr⁸  :    1157506.143917
 Mol. α(0) /au        :        337.323885


Wiberg/Mayer (AO) data.
largest (>0.10) Wiberg bond orders for each atom

 ---------------------------------------------------------------------------
     #   Z sym  total        # sym  WBO       # sym  WBO       # sym  WBO
 ---------------------------------------------------------------------------
     1   6 C    3.991 --     2 C    1.447     6 C    1.431     7 H    0.971
                             4 C    0.106
     2   6 C    3.990 --     1 C    1.447     3 C    1.415     8 H    0.964
                             5 C    0.106
     3   6 C    3.965 --     2 C    1.415     4 C    1.374    11 B    0.964
                             6 C    0.110
     4   6 C    3.977 --     5 C    1.404     3 C    1.374    42 N    1.007
                             1 C    0.106
     5   6 C    3.990 --     6 C    1.442     4 C    1.404     9 H    0.961
                             2 C    0.106
     6   6 C    3.989 --     5 C    1.442     1 C    1.431    10 H    0.971
                             3 C    0.110
     7   1 H    0.999 --     1 C    0.971
     8   1 H    0.999 --     2 C    0.964
     9   1 H    0.999 --     5 C    0.961
    10   1 H    0.999 --     6 C    0.971
    11   5 B    3.484 --     3 C    0.964    20 H    0.951    13 C    0.861
                            12 H    0.322    21 B    0.264
    12   1 H    0.997 --    21 B    0.616    11 B    0.322
    13   6 C    3.919 --    14 C    1.541    45 S    1.143    11 B    0.861
                            21 B    0.175    17 C    0.108
    14   6 C    3.989 --    13 C    1.541    15 C    1.297    16 H    0.962
    15   6 C    3.987 --    17 C    1.593    14 C    1.297    18 H    0.966
    16   1 H    0.999 --    14 C    0.962
    17   6 C    3.953 --    15 C    1.593    45 S    1.215    19 H    0.971
                            13 C    0.108
    18   1 H    0.999 --    15 C    0.966
    19   1 H    0.998 --    17 C    0.971
    20   1 H    0.991 --    11 B    0.951
    21   5 B    3.424 --    22 O    1.127    23 O    1.118    12 H    0.616
                            11 B    0.264    13 C    0.175
    22   8 O    2.238 --    21 B    1.127    24 C    0.940
    23   8 O    2.234 --    21 B    1.118    25 C    0.939
    24   6 C    3.933 --    26 C    0.996    30 C    0.993    22 O    0.940
                            25 C    0.933
    25   6 C    3.935 --    34 C    0.996    38 C    0.994    23 O    0.939
                            24 C    0.933
    26   6 C    3.992 --    24 C    0.996    28 H    0.983    29 H    0.982
                            27 H    0.982
    27   1 H    0.996 --    26 C    0.982
    28   1 H    0.997 --    26 C    0.983
    29   1 H    0.997 --    26 C    0.982
    30   6 C    3.993 --    24 C    0.993    33 H    0.983    31 H    0.982
                            32 H    0.978
    31   1 H    0.996 --    30 C    0.982
    32   1 H    0.998 --    30 C    0.978
    33   1 H    0.997 --    30 C    0.983
    34   6 C    3.993 --    25 C    0.996    36 H    0.983    35 H    0.982
                            37 H    0.979
    35   1 H    0.997 --    34 C    0.982
    36   1 H    0.997 --    34 C    0.983
    37   1 H    0.997 --    34 C    0.979
    38   6 C    3.994 --    25 C    0.994    39 H    0.983    41 H    0.983
                            40 H    0.982
    39   1 H    0.997 --    38 C    0.983
    40   1 H    0.996 --    38 C    0.982
    41   1 H    0.998 --    38 C    0.983
    42   7 N    3.164 --     4 C    1.007    43 C    0.979    44 C    0.978
    43   6 C    3.980 --    58 C    0.992    57 C    0.979    52 C    0.979
                            42 N    0.979
    44   6 C    3.980 --    47 C    0.992    46 C    0.979    48 C    0.979
                            42 N    0.978
    45  16 S    2.635 --    17 C    1.215    13 C    1.143
    46   6 C    3.996 --    49 C    1.009    44 C    0.979    51 H    0.976
                            50 H    0.975
    47   6 C    3.995 --    44 C    0.992    67 H    0.985    66 H    0.984
                            65 H    0.976
    48   6 C    3.996 --    69 H    0.985    70 H    0.981    44 C    0.979
                            68 H    0.976
    49   6 C    3.999 --    46 C    1.009    52 C    1.009    53 H    0.976
                            54 H    0.973
    50   1 H    0.998 --    46 C    0.975
    51   1 H    0.998 --    46 C    0.976
    52   6 C    3.996 --    49 C    1.009    43 C    0.979    56 H    0.976
                            55 H    0.975
    53   1 H    0.999 --    49 C    0.976
    54   1 H    0.999 --    49 C    0.973
    55   1 H    0.998 --    52 C    0.975
    56   1 H    0.998 --    52 C    0.976
    57   6 C    3.996 --    62 H    0.985    64 H    0.981    43 C    0.979
                            63 H    0.976
    58   6 C    3.995 --    43 C    0.992    59 H    0.985    60 H    0.984
                            61 H    0.981
    59   1 H    0.998 --    58 C    0.985
    60   1 H    0.999 --    58 C    0.984
    61   1 H    0.998 --    58 C    0.981
    62   1 H    0.999 --    57 C    0.985
    63   1 H    0.999 --    57 C    0.976
    64   1 H    0.999 --    57 C    0.981
    65   1 H    0.998 --    47 C    0.976
    66   1 H    0.999 --    47 C    0.984
    67   1 H    0.998 --    47 C    0.985
    68   1 H    0.999 --    48 C    0.976
    69   1 H    0.999 --    48 C    0.985
    70   1 H    0.999 --    48 C    0.981
 ---------------------------------------------------------------------------

Topologies differ in total number of bonds
Writing topology from bond orders to xtbtopo.mol

molecular dipole:
                 x           y           z       tot (Debye)
 q only:        1.457      -0.806       0.095
   full:        1.147      -1.270       0.355       4.443
molecular quadrupole (traceless):
                xx          xy          yy          xz          yz          zz
 q only:        6.107     -14.049       0.054       7.143      -3.447      -6.161
  q+dip:        7.258     -15.962      -1.733       8.381      -6.605      -5.525
   full:        5.444     -17.570      -2.092       8.364      -4.634      -3.353

           -------------------------------------------------
          |                Geometry Summary                 |
           -------------------------------------------------

      molecular mass/u    :      439.2704433
   center of mass at/Å    :        1.0241117       0.2040088       0.9793805
  moments of inertia/u·Å² :        0.2069245E+04   0.5314113E+04   0.5747468E+04
rotational constants/cm⁻¹ :        0.8146756E-02   0.3172238E-02   0.2933054E-02

 * 67 selected distances

     #   Z          #   Z                                           value/Å
     1   6 C        2   6 C                                       1.3824134
     2   6 C        3   6 C                                       1.3954720
     3   6 C        4   6 C                                       1.4057599
     4   6 C        5   6 C                                       1.3935593
     1   6 C        6   6 C                                       1.3823102
     5   6 C        6   6 C                                       1.3819950
     1   6 C        7   1 H                                       1.0811427
     2   6 C        8   1 H                                       1.0800406
     5   6 C        9   1 H                                       1.0793812
     6   6 C       10   1 H                                       1.0813150
    13   6 C       14   6 C                                       1.3724017
    14   6 C       15   6 C                                       1.4089380
    14   6 C       16   1 H                                       1.0754732
    15   6 C       17   6 C                                       1.3608083
    15   6 C       18   1 H                                       1.0763950
    17   6 C       19   1 H                                       1.0723231 (min)
    11   5 B       20   1 H                                       1.1788058
    12   1 H       21   5 B                                       1.2635295
    21   5 B       22   8 O                                       1.3631909
    21   5 B       23   8 O                                       1.3649662
    22   8 O       24   6 C                                       1.4332384
    23   8 O       25   6 C                                       1.4318669
    24   6 C       26   6 C                                       1.5297641
    26   6 C       27   1 H                                       1.0869386
    26   6 C       28   1 H                                       1.0858970
    26   6 C       29   1 H                                       1.0852406
    24   6 C       30   6 C                                       1.5318493
    30   6 C       31   1 H                                       1.0873923
    30   6 C       32   1 H                                       1.0852110
    30   6 C       33   1 H                                       1.0858223
    25   6 C       34   6 C                                       1.5294682
    34   6 C       35   1 H                                       1.0873372
    34   6 C       36   1 H                                       1.0857907
    34   6 C       37   1 H                                       1.0854856
    25   6 C       38   6 C                                       1.5324049
    38   6 C       39   1 H                                       1.0854072
    38   6 C       40   1 H                                       1.0873789
    38   6 C       41   1 H                                       1.0861877
     4   6 C       42   7 N                                       1.4249102
    42   7 N       43   6 C                                       1.4598682
    42   7 N       44   6 C                                       1.4593922
    13   6 C       45  16 S                                       1.7467939 (max)
    17   6 C       45  16 S                                       1.7167900
    44   6 C       46   6 C                                       1.5379890
    44   6 C       47   6 C                                       1.5352148
    46   6 C       49   6 C                                       1.5211273
    46   6 C       50   1 H                                       1.0917225
    46   6 C       51   1 H                                       1.0915065
    43   6 C       52   6 C                                       1.5387195
    49   6 C       52   6 C                                       1.5211585
    49   6 C       53   1 H                                       1.0928773
    49   6 C       54   1 H                                       1.0905702
    52   6 C       55   1 H                                       1.0916128
    52   6 C       56   1 H                                       1.0916391
    43   6 C       58   6 C                                       1.5373976
    58   6 C       59   1 H                                       1.0878235
    58   6 C       60   1 H                                       1.0869618
    58   6 C       61   1 H                                       1.0842773
    57   6 C       62   1 H                                       1.0883004
    57   6 C       63   1 H                                       1.0837673
    57   6 C       64   1 H                                       1.0859609
    47   6 C       65   1 H                                       1.0832545
    47   6 C       66   1 H                                       1.0869294
    47   6 C       67   1 H                                       1.0876943
    48   6 C       68   1 H                                       1.0841032
    48   6 C       69   1 H                                       1.0882287
    48   6 C       70   1 H                                       1.0859921

 * 7 distinct bonds (by element types)

   Z      Z             #   av. dist./Å        max./Å        min./Å
   1 H    5 B           2     1.2211676     1.2635295     1.1788058
   1 H    6 C          37     1.0854968     1.0928773     1.0723231
   6 C    6 C          19     1.4630922     1.5387195     1.3608083
   6 C    7 N           3     1.4480569     1.4598682     1.4249102
   5 B    8 O           2     1.3640786     1.3649662     1.3631909
   6 C    8 O           2     1.4325526     1.4332384     1.4318669
   6 C   16 S           2     1.7317919     1.7467939     1.7167900


optimized geometry written to: xtbopt.xyz


           -------------------------------------------------
          | TOTAL ENERGY              -90.280892917099 Eh   |
          | GRADIENT NORM               0.000596157575 Eh/α |
          | HOMO-LUMO GAP               1.644291345482 eV   |
           -------------------------------------------------

------------------------------------------------------------------------
 unit  open   action     filename
   10 false : read       details.inp
   10 false : read       mol.xyz
   10 false : read       details.inp
   10 false : deleted    .xtboptok
   10 false : replaced   xtbopt.log
   11 false : created    .xtboptok
   10 false : replaced   charges
   10 false : replaced   wbo
   10 false : replaced   xtbtopo.mol
   10 false : replaced   xtbopt.xyz

------------------------------------------------------------------------
 * finished run on 2025/07/29 at 12:34:09.197     
------------------------------------------------------------------------
 total:
 * wall-time:     0 d,  0 h,  0 min,  8.008 sec
 *  cpu-time:     0 d,  0 h,  0 min,  7.982 sec
 * ratio c/w:     0.997 speedup
 SCF:
 * wall-time:     0 d,  0 h,  0 min,  0.177 sec
 *  cpu-time:     0 d,  0 h,  0 min,  0.177 sec
 * ratio c/w:     0.997 speedup
 ANC optimizer:
 * wall-time:     0 d,  0 h,  0 min,  7.795 sec
 *  cpu-time:     0 d,  0 h,  0 min,  7.776 sec
 * ratio c/w:     0.998 speedup

