
                                 *****************
                                 * O   R   C   A *
                                 *****************

                                            #,                                       
                                            ###                                      
                                            ####                                     
                                            #####                                    
                                            ######                                   
                                           ########,                                 
                                     ,,################,,,,,                         
                               ,,#################################,,                 
                          ,,##########################################,,             
                       ,#########################################, ''#####,          
                    ,#############################################,,   '####,        
                  ,##################################################,,,,####,       
                ,###########''''           ''''###############################       
              ,#####''   ,,,,##########,,,,          '''####'''          '####       
            ,##' ,,,,###########################,,,                        '##       
           ' ,,###''''                  '''############,,,                           
         ,,##''                                '''############,,,,        ,,,,,,###''
      ,#''                                            '''#######################'''  
     '                                                          ''''####''''         
             ,#######,   #######,   ,#######,      ##                                
            ,#'     '#,  ##    ##  ,#'     '#,    #''#        ,####,   ,####,        
            ##       ##  ##   ,#'  ##            #'  '#       #'       #'  '#        
            ##       ##  #######   ##           ,######,      #####,   #    #        
            '#,     ,#'  ##    ##  '#,     ,#' ,#      #,     #,   #   #,  ,#        
             '#######'   ##     ##  '#######'  #'      '#     '####' # '####'        



                #########################################################
                #                        -***-                          #
                #          Department of theory and spectroscopy        #
                #                                                       #
                #                      Frank Neese                      #
                #                                                       #
                #     Directorship, Architecture, Infrastructure        #
                #                    SHARK, DRIVERS                     #
                #        Core code/Algorithms in most modules           #
                #                                                       #
                #        Max Planck Institute fuer Kohlenforschung      #
                #                Kaiser Wilhelm Platz 1                 #
                #                 D-45470 Muelheim/Ruhr                 #
                #                      Germany                          #
                #                                                       #
                #                  All rights reserved                  #
                #                        -***-                          #
                #########################################################


                         Program Version 6.0.1  -  RELEASE   -


 With contributions from (in alphabetic order):
[Max-Planck-Institut fuer Kohlenforschung]                               
  Daniel Aravena         : Magnetic Suceptibility                        
  Michael Atanasov       : Ab Initio Ligand Field Theory (pilot matlab implementation)
  Alexander A. Auer      : GIAO ZORA, VPT2 properties, NMR spectrum      
  Ute Becker             : All parallelization in ORCA, NUMFREQ, NUMCALC 
  Giovanni Bistoni       : ED, misc. LED, open-shell LED, HFLD           
  Martin Brehm           : Molecular dynamics                            
  Dmytro Bykov           : pre 5.0 version of the SCF Hessian            
  Marcos Casanova-Páez   : Triplet and SCS-CIS(D). UHF-(DLPNO)-IP/EA/STEOM-CCSD. UHF-CVS-IP/STEOM-CCSD   
  Vijay G. Chilkuri      : MRCI spin determinant printing, contributions to CSF-ICE 
  Pauline Colinet        : FMM embedding                                 
  Dipayan Datta          : RHF DLPNO-CCSD density                        
  Achintya Kumar Dutta   : EOM-CC, STEOM-CC                              
  Nicolas Foglia         : Exact transition moments, OPA infrastructure, MCD improvements    
  Dmitry Ganyushin       : Spin-Orbit,Spin-Spin,Magnetic field MRCI      
  Miquel Garcia-Rates    : C-PCM and meta-GGA Hessian, CCSD/C-PCM, Gaussian charge scheme 
  Tiago L. C. Gouveia    : GS-ROHF, GS-ROCIS                             
  Yang Guo               : DLPNO-NEVPT2, F12-NEVPT2, CIM, IAO-localization        
  Andreas Hansen         : Spin unrestricted coupled pair/coupled cluster methods 
  Ingolf Harden          : AUTO-CI MPn and infrastructure                
  Benjamin Helmich-Paris : MC-RPA, TRAH-(SCF,CASSCF), AVAS, COSX integrals, SCF dyn. polar. 
  Lee Huntington         : MR-EOM, pCC                                   
  Robert Izsak           : Overlap fitted RIJCOSX, COSX-SCS-MP3, EOM     
  Riya Kayal             : Wick's Theorem for AUTO-CI, AUTO-CI UHF-CCSDT 
  Emily Kempfer          : AUTO-CI, RHF CISDT and CCSDT                  
  Christian Kollmar      : KDIIS, OOCD, Brueckner-CCSD(T), CCSD density, CASPT2, CASPT2-K, improved NEVPT2 
  Axel Koslowski         : Symmetry handling                             
  Simone Kossmann        : meta-GGA functionals, TD-DFT gradient, OOMP2, (MP2 Hessian; deprecated post 5.0) 
  Lucas Lang             : DCDCAS                                        
  Marvin Lechner         : AUTO-CI (C++ implementation), FIC-MRCC        
  Spencer Leger          : CASSCF response                               
  Dagmar Lenk            : GEPOL surface, SMD, ORCA-2-JSON               
  Dimitrios Liakos       : Extrapolation schemes; Compound Job, initial MDCI parallelization 
  Dimitrios Manganas     : Further ROCIS development; embedding schemes. LFT, Crystal Embedding 
  Dimitrios Pantazis     : SARC Basis sets                               
  Anastasios Papadopoulos: AUTO-CI, single reference methods and gradients 
  Taras Petrenko         : pre 6.0 DFT Hessian and TD-DFT gradient, (ASA, deprecated), ECA, 1-Electron XAS/XES, NRVS 
  Peter Pinski           : DLPNO-MP2, DLPNO-MP2 Gradient                 
  Christoph Reimann      : Effective Core Potentials                     
  Marius Retegan         : Local ZFS, SOC                                
  Christoph Riplinger    : Optimizer, TS searches, QM/MM, DLPNO-CCSD(T), (RO)-DLPNO pert. Triples 
  Michael Roemelt        : Original ROCIS implementation                 
  Masaaki Saitow         : Open-shell DLPNO-CCSD energy and density      
  Barbara Sandhoefer     : DKH picture change effects                    
  Kantharuban Sivalingam : CASSCF convergence/infrastructure, NEVPT2 and variants, FIC-MRCI 
  Bernardo de Souza      : ESD, SOC TD-DFT                               
  Georgi L. Stoychev     : AutoAux, RI-MP2 NMR, DLPNO-MP2 response, X2C  
  Van Anh Tran           : RI-MP2 g-tensors                              
  Willem Van den Heuvel  : Paramagnetic NMR                              
  Zikuan Wang            : NOTCH, Electric field optimization            
  Frank Wennmohs         : Technical directorship and infrastructure     
  Hang Xu                : AUTO-CI-Response properties                   
                                                                         
[FACCTs GmbH]                                                            
  Markus Bursch, Miquel Garcia-Rates, Christoph Riplinger, Bernardo de Souza, Georgi L. Stoychev 
                                                                 
  APM, Basis sets (HGBS, AHGBS, def-TZVP (Ac-Lr), def2-XVPD (La-Lu)), CI-OPT, improved COSX, DLPNO-Multilevel,           
  DOCKER, DRACO, updates on ESD, GOAT, IRC, LR-CPCM, MBIS, meta-GGA TD-DFT gradient, ML-optimized integration grids, 
  MM, NACMEs, nearIR, NEB, NEB-TS, NL-DFT gradient (VV10), 2- and 3-layer-ONIOM, interface openCOSMO-RS, QMMM,   
  Crystal-QMMM, SF, symmetry and pop. for TD-DFT, r2SCAN hybrids, SOLVATOR                                   
                                                                         
[Other institutions]                                                     
  V. Asgeirsson          : NEB                                           
  Christoph Bannwarth    : sTDA-DFT, sTD-DFT, PBEh-3c, B97-3c, D3        
  Sebastian Ehlert       : rSCAN, r2SCAN, r2SCAN-3c, D4, dhf basis sets  
  Marvin Friede          : D4 for Fr, Ra, Ac-Lr                          
  Lars Goerigk           : TD-DFT with DH, B97 family of functionals     
  Stefan Grimme          : VdW corrections, initial TS optimization, DFT functionals, gCP, sTDA/sTD-DF 
  Waldemar Hujo          : DFT-NL                                        
  H. Jonsson             : NEB                                           
  Holger Kruse           : gCP                                           
  Marcel Mueller         : wB97X-3c, vDZP basis set                      
  Hagen Neugebauer       : wr2SCAN                                       
  Tobias Risthaus        : range-separated hybrid DFT                    
  Lukas Wittmann         : regularized MP2, r2SCAN double-hybrids, wr2SCAN        
                                                                         
We gratefully acknowledge several colleagues who have allowed us to      
interface, adapt or use parts of their codes:                            
  Ed Valeev, F. Pavosevic, A. Kumar             : LibInt (2-el integral package), F12 methods 
  Garnet Chan, S. Sharma, J. Yang, R. Olivares  : DMRG                   
  Ulf Ekstrom                                   : XCFun DFT Library      
  Mihaly Kallay                                 : mrcc  (arbitrary order and MRCC methods)
  Frank Weinhold                                : gennbo (NPA and NBO analysis)           
  Simon Mueller                                 : openCOSMO-RS                            
  Christopher J. Cramer and Donald G. Truhlar   : smd solvation model                     
  S Lehtola, MJT Oliveira, MAL Marques          : LibXC Library                           
  Liviu Ungur et al                             : ANISO software                          


 Your calculation uses the libint2 library for the computation of 2-el integrals
 For citations please refer to: http://libint.valeyev.net

 Your ORCA version has been built with support for libXC version: 6.2.2
 For citations please refer to: https://libxc.gitlab.io

 This ORCA versions uses:
   CBLAS   interface :  Fast vector & matrix operations
   LAPACKE interface :  Fast linear algebra routines
   SCALAPACK package :  Parallel linear algebra routines
   Shared memory     :  Shared parallel matrices
   BLAS/LAPACK       :  OpenBLAS 0.3.27  USE64BITINT DYNAMIC_ARCH NO_AFFINITY Haswell SINGLE_THREADED
        Core in use  :  Haswell
   Copyright (c) 2011-2014, The OpenBLAS Project


NOTE: MaxCore=2560 MB was set to SCF,MP2,MDCI,CIPSI,MRCI and CIS
      => If you want to overwrite this, your respective input block should be placed after the MaxCore statement
Your calculation utilizes the atom-pairwise dispersion correction
with the zero-damping scheme (D30)


XCFun DFT library Copyright 2009-2010 Ulf Ekstrom and contributors.
See http://admol.org/xcfun for more information.
This is free software; see the source code for copying conditions.
There is ABSOLUTELY NO WARRANTY; not even for MERCHANTABILITY or FITNESS FOR A PARTICULAR PURPOSE.
For details see the documentation.
Scientific users of this library should cite U. Ekstrom, L. Visscher, R. Bast, A. J. Thorvaldsen and K. Ruud;
J.Chem.Theor.Comp. 2010, DOI: 10.1021/ct100117s
XCFun Version 0.99 

Warning: RI is on but no J-basis has been assigned. Assigning Def2/J (nothing to worry about!)
================================================================================

----- Orbital basis set information -----
Your calculation utilizes the basis: 6-31G**
   H-He, Li-Ne : W. J. Hehre, R. Ditchfield and J.A. Pople, J. Chem. Phys. 56, 2257 (1972).
                 Note: He and Ne are unpublished basis sets taken from the Gaussian program.
                 Note: Li and B from J. D. Dill and J. A. Pople, J. Chem. Phys. 62, 2921 (1975).
   Na - Ar     : M. M. Francl, W. J. Pietro, W. J. Hehre, J. S. Binkley, M. S. Gordon, 
                 D. J. DeFrees and J. A. Pople, J. Chem. Phys. 77, 3654 (1982).
   K - Zn      : V. A. Rassolov, J. A. Pople, M. A. Ratner, and T. L. Windus, J. Chem. Phys. 109, 1223 (1998).

----- AuxJ basis set information -----
Your calculation utilizes the auxiliary basis: def2/J
   F. Weigend, Phys. Chem. Chem. Phys. 8, 1057 (2006).

================================================================================
                                        WARNINGS
                       Please study these warnings very carefully!
================================================================================

WARNING: SinglePoint found together with IRC
         Switching on EnGrad - energy plus gradient calculation

================================================================================
                                       INPUT FILE
================================================================================
NAME = input.inp
|  1> # Automatically generated ORCA input
|  2> 
|  3> # Number of cores
|  4> %pal nprocs 24 end
|  5> # RAM per core
|  6> %maxcore 2560
|  7> 
|  8> ! wB97X-D3 
|  9> ! 6-31G** 
| 10> ! TightSCF 
| 11> ! NoSym 
| 12> ! IRC 
| 13> 
| 14> %geom
| 15>     Calc_Hess true
| 16>     end
| 17> 
| 18> 
| 19> *xyz 0 1 
| 20> C         2.21533800      0.84553300      0.88555300
| 21> C         1.42287400     -0.29179500      0.62211300
| 22> C         1.91995400     -1.54566300      1.00608600
| 23> C         3.14998800     -1.69150000      1.63810200
| 24> C         3.91810600     -0.56518700      1.90601600
| 25> C         3.45008600      0.68873500      1.52885000
| 26> H         1.33014900     -2.43617700      0.79634400
| 27> H         3.50419500     -2.67927800      1.91995400
| 28> H         4.88007000     -0.65756300      2.40279600
| 29> H         4.05375800      1.56611700      1.73530100
| 30> N         1.75026600      2.14189900      0.48077500
| 31> C         2.39069400      2.72114900     -0.72740000
| 32> C         1.19292200      3.01864900      1.54028900
| 33> C         1.44327100      3.78580500     -1.31046000
| 34> C         2.55739800      1.62431400     -1.79165700
| 35> C         3.79115100      3.33911600     -0.50611000
| 36> C         0.30272300      4.08312100      0.87182400
| 37> C         0.28849300      2.19092900      2.46424600
| 38> C         2.24508700      3.70555700      2.44134500
| 39> H         1.93917300      4.27706100     -2.15631900
| 40> H         0.55921400      3.27016200     -1.70806500
| 41> C         0.98799900      4.80898300     -0.27816300
| 42> H         2.92154000      2.07577900     -2.72020200
| 43> H         1.60478500      1.13187700     -1.99848100
| 44> H         3.27932000      0.86359300     -1.48323700
| 45> H         3.78097400      4.19660200      0.16872600
| 46> H         4.19534000      3.68438400     -1.46401600
| 47> H         4.48915400      2.59867500     -0.10729800
| 48> H        -0.03709500      4.79140100      1.63681300
| 49> H        -0.59002200      3.57654100      0.48101700
| 50> H         0.84579000      1.42439500      3.00917500
| 51> H        -0.17910200      2.85390400      3.19935700
| 52> H        -0.50491100      1.69279800      1.90236800
| 53> H         2.88174800      2.96462200      2.93211600
| 54> H         1.74168000      4.27486700      3.23021700
| 55> H         2.88783500      4.39948600      1.89700800
| 56> H         0.29749500      5.52679600     -0.73548200
| 57> H         1.84063100      5.39542600      0.08710000
| 58> B        -0.01903200     -0.15170000     -0.05145100
| 59> H        -0.22217000      0.73260300     -0.83461600
| 60> C        -1.85601600     -3.47731700     -3.43738800
| 61> H        -2.16741500     -2.72638800     -4.16781400
| 62> H        -0.76371800     -3.52763100     -3.45090500
| 63> H        -2.25489900     -4.44719800     -3.74772200
| 64> C        -3.89185100     -2.98707900     -2.06162400
| 65> H        -4.33500800     -3.98084900     -2.18069600
| 66> H        -4.22185700     -2.36531100     -2.89818300
| 67> H        -4.26695000     -2.54307000     -1.13771200
| 68> C        -2.63349300     -3.93629800      0.36492300
| 69> H        -3.51862300     -4.56145900      0.21488300
| 70> H        -2.05520600     -4.34914000      1.19536600
| 71> H        -2.95311200     -2.93347400      0.65589700
| 72> C        -1.35714700     -5.33623900     -1.26634700
| 73> H        -2.23124900     -5.91346600     -1.58409900
| 74> C        -2.37201400     -3.06786200     -2.05865200
| 75> C        -1.75834400     -3.91842800     -0.88582300
| 76> O        -1.84899600     -1.74258400     -1.80492200
| 77> O        -0.55018400     -3.18358600     -0.56784800
| 78> B        -0.76519500     -1.89905600     -0.98091100
| 79> H        -0.91909100     -5.83343000     -0.39720300
| 80> H        -0.61799600     -5.34511200     -2.06884000
| 81> H         0.21315700     -1.15100000     -1.11599500
| 82> C        -2.96401900      0.83174400     -0.44134800
| 83> N        -2.54518100     -0.02101300      0.65512800
| 84> C        -1.27280700     -0.55489700      0.83108800
| 85> C        -1.30395700     -1.22458600      2.05338700
| 86> C        -2.58866100     -1.09660900      2.60891200
| 87> C        -3.32843000     -0.34502000      1.71440800
| 88> H        -2.38569200      1.75941300     -0.44724700
| 89> H        -4.02021200      1.07254400     -0.30880100
| 90> H        -2.82743000      0.31505600     -1.39230800
| 91> H        -0.45732400     -1.73927600      2.48726700
| 92> H        -2.94592100     -1.49858400      3.54652900
| 93> H        -4.35535200     -0.00800000      1.76324000
| 94> *
| 95> 
| 96> 
| 97>                          ****END OF INPUT****
================================================================================

                     *******************************
                     * Energy+Gradient Calculation *
                     *******************************

---------------------------------
CARTESIAN COORDINATES (ANGSTROEM)
---------------------------------
  C      2.215338    0.845533    0.885553
  C      1.422874   -0.291795    0.622113
  C      1.919954   -1.545663    1.006086
  C      3.149988   -1.691500    1.638102
  C      3.918106   -0.565187    1.906016
  C      3.450086    0.688735    1.528850
  H      1.330149   -2.436177    0.796344
  H      3.504195   -2.679278    1.919954
  H      4.880070   -0.657563    2.402796
  H      4.053758    1.566117    1.735301
  N      1.750266    2.141899    0.480775
  C      2.390694    2.721149   -0.727400
  C      1.192922    3.018649    1.540289
  C      1.443271    3.785805   -1.310460
  C      2.557398    1.624314   -1.791657
  C      3.791151    3.339116   -0.506110
  C      0.302723    4.083121    0.871824
  C      0.288493    2.190929    2.464246
  C      2.245087    3.705557    2.441345
  H      1.939173    4.277061   -2.156319
  H      0.559214    3.270162   -1.708065
  C      0.987999    4.808983   -0.278163
  H      2.921540    2.075779   -2.720202
  H      1.604785    1.131877   -1.998481
  H      3.279320    0.863593   -1.483237
  H      3.780974    4.196602    0.168726
  H      4.195340    3.684384   -1.464016
  H      4.489154    2.598675   -0.107298
  H     -0.037095    4.791401    1.636813
  H     -0.590022    3.576541    0.481017
  H      0.845790    1.424395    3.009175
  H     -0.179102    2.853904    3.199357
  H     -0.504911    1.692798    1.902368
  H      2.881748    2.964622    2.932116
  H      1.741680    4.274867    3.230217
  H      2.887835    4.399486    1.897008
  H      0.297495    5.526796   -0.735482
  H      1.840631    5.395426    0.087100
  B     -0.019032   -0.151700   -0.051451
  H     -0.222170    0.732603   -0.834616
  C     -1.856016   -3.477317   -3.437388
  H     -2.167415   -2.726388   -4.167814
  H     -0.763718   -3.527631   -3.450905
  H     -2.254899   -4.447198   -3.747722
  C     -3.891851   -2.987079   -2.061624
  H     -4.335008   -3.980849   -2.180696
  H     -4.221857   -2.365311   -2.898183
  H     -4.266950   -2.543070   -1.137712
  C     -2.633493   -3.936298    0.364923
  H     -3.518623   -4.561459    0.214883
  H     -2.055206   -4.349140    1.195366
  H     -2.953112   -2.933474    0.655897
  C     -1.357147   -5.336239   -1.266347
  H     -2.231249   -5.913466   -1.584099
  C     -2.372014   -3.067862   -2.058652
  C     -1.758344   -3.918428   -0.885823
  O     -1.848996   -1.742584   -1.804922
  O     -0.550184   -3.183586   -0.567848
  B     -0.765195   -1.899056   -0.980911
  H     -0.919091   -5.833430   -0.397203
  H     -0.617996   -5.345112   -2.068840
  H      0.213157   -1.151000   -1.115995
  C     -2.964019    0.831744   -0.441348
  N     -2.545181   -0.021013    0.655128
  C     -1.272807   -0.554897    0.831088
  C     -1.303957   -1.224586    2.053387
  C     -2.588661   -1.096609    2.608912
  C     -3.328430   -0.345020    1.714408
  H     -2.385692    1.759413   -0.447247
  H     -4.020212    1.072544   -0.308801
  H     -2.827430    0.315056   -1.392308
  H     -0.457324   -1.739276    2.487267
  H     -2.945921   -1.498584    3.546529
  H     -4.355352   -0.008000    1.763240

----------------------------
CARTESIAN COORDINATES (A.U.)
----------------------------
  NO LB      ZA    FRAG     MASS         X           Y           Z
   0 C     6.0000    0    12.011    4.186382    1.597826    1.673453
   1 C     6.0000    0    12.011    2.688842   -0.551413    1.175623
   2 C     6.0000    0    12.011    3.628187   -2.920880    1.901227
   3 C     6.0000    0    12.011    5.952615   -3.196472    3.095564
   4 C     6.0000    0    12.011    7.404147   -1.068049    3.601848
   5 C     6.0000    0    12.011    6.519718    1.301521    2.889108
   6 H     1.0000    0     1.008    2.513617   -4.603707    1.504872
   7 H     1.0000    0     1.008    6.621969   -5.063102    3.628187
   8 H     1.0000    0     1.008    9.221996   -1.242614    4.540626
   9 H     1.0000    0     1.008    7.660492    2.959532    3.279244
  10 N     7.0000    0    14.007    3.307523    4.047603    0.908533
  11 C     6.0000    0    12.011    4.517757    5.142226   -1.374587
  12 C     6.0000    0    12.011    2.254296    5.704420    2.910724
  13 C     6.0000    0    12.011    2.727387    7.154135   -2.476411
  14 C     6.0000    0    12.011    4.832782    3.069509   -3.385741
  15 C     6.0000    0    12.011    7.164237    6.310015   -0.956409
  16 C     6.0000    0    12.011    0.572064    7.715980    1.647509
  17 C     6.0000    0    12.011    0.545173    4.140256    4.656750
  18 C     6.0000    0    12.011    4.242600    7.002488    4.613473
  19 H     1.0000    0     1.008    3.664506    8.082474   -4.074852
  20 H     1.0000    0     1.008    1.056761    6.179711   -3.227775
  21 C     6.0000    0    12.011    1.867048    9.087661   -0.525652
  22 H     1.0000    0     1.008    5.520910    3.922654   -5.140437
  23 H     1.0000    0     1.008    3.032604    2.138938   -3.776582
  24 H     1.0000    0     1.008    6.197017    1.631954   -2.802912
  25 H     1.0000    0     1.008    7.145005    7.930428    0.318846
  26 H     1.0000    0     1.008    7.928044    6.962477   -2.766589
  27 H     1.0000    0     1.008    8.483272    4.910784   -0.202764
  28 H     1.0000    0     1.008   -0.070099    9.054436    3.093128
  29 H     1.0000    0     1.008   -1.114980    6.758683    0.908990
  30 H     1.0000    0     1.008    1.598311    2.691716    5.686517
  31 H     1.0000    0     1.008   -0.338454    5.393097    6.045909
  32 H     1.0000    0     1.008   -0.954144    3.198925    3.594955
  33 H     1.0000    0     1.008    5.445715    5.602324    5.540896
  34 H     1.0000    0     1.008    3.291298    8.078328    6.104225
  35 H     1.0000    0     1.008    5.457217    8.313824    3.584826
  36 H     1.0000    0     1.008    0.562184   10.444131   -1.389860
  37 H     1.0000    0     1.008    3.478289   10.195878    0.164595
  38 B     5.0000    0    10.810   -0.035965   -0.286671   -0.097228
  39 H     1.0000    0     1.008   -0.419840    1.384419   -1.577196
  40 C     6.0000    0    12.011   -3.507362   -6.571177   -6.495722
  41 H     1.0000    0     1.008   -4.095821   -5.152127   -7.876027
  42 H     1.0000    0     1.008   -1.443218   -6.666256   -6.521265
  43 H     1.0000    0     1.008   -4.261142   -8.403986   -7.082168
  44 C     6.0000    0    12.011   -7.354533   -5.644761   -3.895905
  45 H     1.0000    0     1.008   -8.191978   -7.522714   -4.120918
  46 H     1.0000    0     1.008   -7.978154   -4.469790   -5.476772
  47 H     1.0000    0     1.008   -8.063367   -4.805706   -2.149964
  48 C     6.0000    0    12.011   -4.976581   -7.438525    0.689605
  49 H     1.0000    0     1.008   -6.649234   -8.619908    0.406070
  50 H     1.0000    0     1.008   -3.883776   -8.218684    2.258914
  51 H     1.0000    0     1.008   -5.580573   -5.543462    1.239466
  52 C     6.0000    0    12.011   -2.564636  -10.084030   -2.393049
  53 H     1.0000    0     1.008   -4.216450  -11.174831   -2.993513
  54 C     6.0000    0    12.011   -4.482457   -5.797419   -3.890288
  55 C     6.0000    0    12.011   -3.322789   -7.404756   -1.673963
  56 O     8.0000    0    15.999   -3.494096   -3.293007   -3.410808
  57 O     8.0000    0    15.999   -1.039697   -6.016106   -1.073077
  58 B     5.0000    0    10.810   -1.446009   -3.588696   -1.853653
  59 H     1.0000    0     1.008   -1.736830  -11.023585   -0.750605
  60 H     1.0000    0     1.008   -1.167843  -10.100798   -3.909541
  61 H     1.0000    0     1.008    0.402808   -2.175075   -2.108925
  62 C     6.0000    0    12.011   -5.601184    1.571768   -0.834027
  63 N     7.0000    0    14.007   -4.809695   -0.039709    1.238013
  64 C     6.0000    0    12.011   -2.405257   -1.048603    1.570529
  65 C     6.0000    0    12.011   -2.464122   -2.314132    3.880339
  66 C     6.0000    0    12.011   -4.891860   -2.072291    4.930129
  67 C     6.0000    0    12.011   -6.289821   -0.651993    3.239762
  68 H     1.0000    0     1.008   -4.508305    3.324809   -0.845174
  69 H     1.0000    0     1.008   -7.597100    2.026814   -0.583549
  70 H     1.0000    0     1.008   -5.343068    0.595370   -2.631081
  71 H     1.0000    0     1.008   -0.864217   -3.286755    4.700253
  72 H     1.0000    0     1.008   -5.566984   -2.831913    6.701969
  73 H     1.0000    0     1.008   -8.230422   -0.015118    3.332041

--------------------------------
INTERNAL COORDINATES (ANGSTROEM)
--------------------------------
 C      0   0   0     0.000000000000     0.00000000     0.00000000
 C      1   0   0     1.410997804562     0.00000000     0.00000000
 C      2   1   0     1.402393936294   118.06589796     0.00000000
 C      3   2   1     1.390574088634   122.12306679     0.46151517
 C      4   3   2     1.389375452241   119.44897931     0.17779252
 C      5   4   3     1.390545682112   119.51392352   359.49846113
 H      3   2   1     1.088520476971   119.11992159   180.99896266
 H      4   3   2     1.086558109830   120.10542635   180.10327092
 H      5   4   3     1.086599480523   120.57596362   179.74047496
 H      6   5   4     1.084823060646   119.36710571   180.26673608
 N      1   2   3     1.435514542045   119.55845372   178.69595799
 C     11   1   2     1.485047277466   116.22732991   256.15667042
 C     11   1   2     1.483877627378   116.99602085   103.02517791
 C     12  11   1     1.539825218285   108.20432274   158.42335501
 C     12  11   1     1.537361441851   109.37038923    41.80707306
 C     12  11   1     1.546651960215   115.46330967   281.60157186
 C     13  11   1     1.540259833473   108.39315679   200.78389607
 C     13  11   1     1.535190135550   109.41721325   317.20542581
 C     13  11   1     1.546219810643   115.02354485    77.43863023
 H     14  12  11     1.096689882793   108.87753073   175.54214273
 H     14  12  11     1.097968223002   107.92776843   291.54868761
 C     17  13  11     1.522809554537   113.39559645   309.32355065
 H     15  12  11     1.094813161875   109.20752073   173.51073514
 H     15  12  11     1.092127233299   110.99027305    54.07572657
 H     15  12  11     1.093156306447   111.88751147   292.84180716
 H     16  12  11     1.091232989980   113.20375222   296.48180379
 H     16  12  11     1.095519349159   109.56603614   176.82873157
 H     16  12  11     1.092937360435   111.08807857    58.48051868
 H     17  13  11     1.096514934529   108.82871445   185.25853153
 H     17  13  11     1.098338309754   107.78465067    69.41721396
 H     18  13  11     1.093207178172   112.19291878    64.53788490
 H     18  13  11     1.094791814443   109.22271164   184.14970003
 H     18  13  11     1.092397037373   111.35698323   303.51233189
 H     19  13  11     1.093242003212   110.90374357   302.07951627
 H     19  13  11     1.095377339611   109.74592590   183.75819292
 H     19  13  11     1.091313528787   113.11588908    63.81695791
 H     22  17  13     1.095989025833   110.10717355   178.04283459
 H     22  17  13     1.097412310320   110.67096636   295.10623837
 B      2   1   3     1.597625733380   120.99245689   178.07857524
 H     39   2   1     1.198584273248   119.54702585    32.14388575
 C     39   2   1     5.089087149471   123.29742861   142.83730296
 H     41  39   2     1.092879609892    95.65358538   229.05269098
 H     41  39   2     1.093539724331    71.20006292   336.10287276
 H     41  39   2     1.093656250111   154.15393532    70.26758287
 C     41  39   2     2.505530687811    78.46934716   140.14975218
 H     45  41  39     1.094598136639    95.25520397   211.70295558
 H     45  41  39     1.093311651059    86.35280290   103.82677774
 H     45  41  39     1.091538655122   145.44475824   346.45976999
 C     48  45  41     2.620530094095    93.14616058   307.00208568
 H     49  48  45     1.093980527441    73.79019393   273.29940024
 H     49  48  45     1.092927238009   165.09179643   172.40391036
 H     49  48  45     1.092006478375    58.80903499   148.47527007
 C     49  48  45     2.499987145586   103.99269057   359.36568257
 H     53  49  48     1.094628544045    94.41722871   294.58308811
 C     45  41  39     1.521985293110    34.84481397   331.31579771
 C     53  49  48     1.521823110321    34.96952969    55.10765220
 O     55  45  41     1.447165684539   108.21802823   116.05463614
 O     56  53  49     1.449396926721   107.90572213   117.33695843
 B     58  56  53     1.366333814626   106.20941114   145.82325297
 H     53  49  48     1.092933320177    86.58707039   186.65097718
 H     53  49  48     1.091062759872   146.13540918    68.75509820
 H     59  58  56     1.238954439072   118.44592912   196.99156923
 C     40  39   2     2.771682629109    95.81615759   204.72059368
 N     63  40  39     1.450820247263    78.49965358    11.23389501
 C     64  63  40     1.391017484769   125.82153685   350.62658246
 C     65  64  63     1.394083399450   105.95276644   175.96344112
 C     66  65  64     1.405507205876   108.85826279     0.10705758
 C     64  63  40     1.356662688530   124.31925564   166.14253771
 H     63  40  39     1.093191058640    60.41300777   132.99656712
 H     63  40  39     1.091373904974   169.25668427   142.88721808
 H     63  40  39     1.090847361396    74.66270906   256.39143132
 H     66  65  64     1.081639998885   124.24950345   180.90611796
 H     67  66  65     1.080899739529   127.66950195   179.90466920
 H     68  64  63     1.081913045817   120.58635541     3.20283985

---------------------------
INTERNAL COORDINATES (A.U.)
---------------------------
 C      0   0   0     0.000000000000     0.00000000     0.00000000
 C      1   0   0     2.666399426187     0.00000000     0.00000000
 C      2   1   0     2.650140471467   118.06589796     0.00000000
 C      3   2   1     2.627804196446   122.12306679     0.46151517
 C      4   3   2     2.625539101928   119.44897931     0.17779252
 C      5   4   3     2.627750515898   119.51392352   359.49846113
 H      3   2   1     2.057005592640   119.11992159   180.99896266
 H      4   3   2     2.053297256170   120.10542635   180.10327092
 H      5   4   3     2.053375435449   120.57596362   179.74047496
 H      6   5   4     2.050018488383   119.36710571   180.26673608
 N      1   2   3     2.712729345727   119.55845372   178.69595799
 C     11   1   2     2.806332650336   116.22732991   256.15667042
 C     11   1   2     2.804122331997   116.99602085   103.02517791
 C     12  11   1     2.909847956663   108.20432274   158.42335501
 C     12  11   1     2.905192093949   109.37038923    41.80707306
 C     12  11   1     2.922748629299   115.46330967   281.60157186
 C     13  11   1     2.910669260343   108.39315679   200.78389607
 C     13  11   1     2.901088919687   109.41721325   317.20542581
 C     13  11   1     2.921931984959   115.02354485    77.43863023
 H     14  12  11     2.072443532321   108.87753073   175.54214273
 H     14  12  11     2.074859245223   107.92776843   291.54868761
 C     17  13  11     2.877693012193   113.39559645   309.32355065
 H     15  12  11     2.068897043756   109.20752073   173.51073514
 H     15  12  11     2.063821374333   110.99027305    54.07572657
 H     15  12  11     2.065766040754   111.88751147   292.84180716
 H     16  12  11     2.062131499363   113.20375222   296.48180379
 H     16  12  11     2.070231544322   109.56603614   176.82873157
 H     16  12  11     2.065352292752   111.08807857    58.48051868
 H     17  13  11     2.072112928014   108.82871445   185.25853153
 H     17  13  11     2.075558607830   107.78465067    69.41721396
 H     18  13  11     2.065862174381   112.19291878    64.53788490
 H     18  13  11     2.068856702956   109.22271164   184.14970003
 H     18  13  11     2.064331230142   111.35698323   303.51233189
 H     19  13  11     2.065927984170   110.90374357   302.07951627
 H     19  13  11     2.069963185168   109.74592590   183.75819292
 H     19  13  11     2.062283695651   113.11588908    63.81695791
 H     22  17  13     2.071119104607   110.10717355   178.04283459
 H     22  17  13     2.073808722499   110.67096636   295.10623837
 B      2   1   3     3.019075100593   120.99245689   178.07857524
 H     39   2   1     2.264996024864   119.54702585    32.14388575
 C     39   2   1     9.616980984159   123.29742861   142.83730296
 H     41  39   2     2.065243160043    95.65358538   229.05269098
 H     41  39   2     2.066490595549    71.20006292   336.10287276
 H     41  39   2     2.066710797360   154.15393532    70.26758287
 C     41  39   2     4.734766820099    78.46934716   140.14975218
 H     45  41  39     2.068490704948    95.25520397   211.70295558
 H     45  41  39     2.066059599526    86.35280290   103.82677774
 H     45  41  39     2.062709122770   145.44475824   346.45976999
 C     48  45  41     4.952084203539    93.14616058   307.00208568
 H     49  48  45     2.067323592707    73.79019393   273.29940024
 H     49  48  45     2.065333164140   165.09179643   172.40391036
 H     49  48  45     2.063593180597    58.80903499   148.47527007
 C     49  48  45     4.724291043482   103.99269057   359.36568257
 H     53  49  48     2.068548166617    94.41722871   294.58308811
 C     45  41  39     2.876135383833    34.84481397   331.31579771
 C     53  49  48     2.875828902778    34.96952969    55.10765220
 O     55  45  41     2.734746814188   108.21802823   116.05463614
 O     56  53  49     2.738963250850   107.90572213   117.33695843
 B     58  56  53     2.581996717159   106.20941114   145.82325297
 H     53  49  48     2.065344657772    86.58707039   186.65097718
 H     53  49  48     2.061809811078   146.13540918    68.75509820
 H     59  58  56     2.341284582252   118.44592912   196.99156923
 C     40  39   2     5.237721099163    95.81615759   204.72059368
 N     63  40  39     2.741652936875    78.49965358    11.23389501
 C     64  63  40     2.628642093709   125.82153685   350.62658246
 C     65  64  63     2.634435832806   105.95276644   175.96344112
 C     66  65  64     2.656023698359   108.85826279     0.10705758
 C     64  63  40     2.563720937431   124.31925564   166.14253771
 H     63  40  39     2.065831712882    60.41300777   132.99656712
 H     63  40  39     2.062397790109   169.25668427   142.88721808
 H     63  40  39     2.061402766949    74.66270906   256.39143132
 H     66  65  64     2.044003373388   124.24950345   180.90611796
 H     67  66  65     2.042604485937   127.66950195   179.90466920
 H     68  64  63     2.044519357310   120.58635541     3.20283985

---------------------
BASIS SET INFORMATION
---------------------
There are 5 groups of distinct atoms

 Group   1 Type C   : 10s4p1d contracted to 3s2p1d pattern {631/31/1}
 Group   2 Type H   : 4s1p contracted to 2s1p pattern {31/1}
 Group   3 Type N   : 10s4p1d contracted to 3s2p1d pattern {631/31/1}
 Group   4 Type B   : 10s4p1d contracted to 3s2p1d pattern {631/31/1}
 Group   5 Type O   : 10s4p1d contracted to 3s2p1d pattern {631/31/1}

Atom   0C    basis set group =>   1
Atom   1C    basis set group =>   1
Atom   2C    basis set group =>   1
Atom   3C    basis set group =>   1
Atom   4C    basis set group =>   1
Atom   5C    basis set group =>   1
Atom   6H    basis set group =>   2
Atom   7H    basis set group =>   2
Atom   8H    basis set group =>   2
Atom   9H    basis set group =>   2
Atom  10N    basis set group =>   3
Atom  11C    basis set group =>   1
Atom  12C    basis set group =>   1
Atom  13C    basis set group =>   1
Atom  14C    basis set group =>   1
Atom  15C    basis set group =>   1
Atom  16C    basis set group =>   1
Atom  17C    basis set group =>   1
Atom  18C    basis set group =>   1
Atom  19H    basis set group =>   2
Atom  20H    basis set group =>   2
Atom  21C    basis set group =>   1
Atom  22H    basis set group =>   2
Atom  23H    basis set group =>   2
Atom  24H    basis set group =>   2
Atom  25H    basis set group =>   2
Atom  26H    basis set group =>   2
Atom  27H    basis set group =>   2
Atom  28H    basis set group =>   2
Atom  29H    basis set group =>   2
Atom  30H    basis set group =>   2
Atom  31H    basis set group =>   2
Atom  32H    basis set group =>   2
Atom  33H    basis set group =>   2
Atom  34H    basis set group =>   2
Atom  35H    basis set group =>   2
Atom  36H    basis set group =>   2
Atom  37H    basis set group =>   2
Atom  38B    basis set group =>   4
Atom  39H    basis set group =>   2
Atom  40C    basis set group =>   1
Atom  41H    basis set group =>   2
Atom  42H    basis set group =>   2
Atom  43H    basis set group =>   2
Atom  44C    basis set group =>   1
Atom  45H    basis set group =>   2
Atom  46H    basis set group =>   2
Atom  47H    basis set group =>   2
Atom  48C    basis set group =>   1
Atom  49H    basis set group =>   2
Atom  50H    basis set group =>   2
Atom  51H    basis set group =>   2
Atom  52C    basis set group =>   1
Atom  53H    basis set group =>   2
Atom  54C    basis set group =>   1
Atom  55C    basis set group =>   1
Atom  56O    basis set group =>   5
Atom  57O    basis set group =>   5
Atom  58B    basis set group =>   4
Atom  59H    basis set group =>   2
Atom  60H    basis set group =>   2
Atom  61H    basis set group =>   2
Atom  62C    basis set group =>   1
Atom  63N    basis set group =>   3
Atom  64C    basis set group =>   1
Atom  65C    basis set group =>   1
Atom  66C    basis set group =>   1
Atom  67C    basis set group =>   1
Atom  68H    basis set group =>   2
Atom  69H    basis set group =>   2
Atom  70H    basis set group =>   2
Atom  71H    basis set group =>   2
Atom  72H    basis set group =>   2
Atom  73H    basis set group =>   2
---------------------------------
AUXILIARY/J BASIS SET INFORMATION
---------------------------------
There are 5 groups of distinct atoms

 Group   1 Type C   : 12s5p4d2f1g contracted to 6s4p3d1f1g pattern {711111/2111/211/2/1}
 Group   2 Type H   : 5s2p1d contracted to 3s1p1d pattern {311/2/1}
 Group   3 Type N   : 12s5p4d2f1g contracted to 6s4p3d1f1g pattern {711111/2111/211/2/1}
 Group   4 Type B   : 12s5p4d2f1g contracted to 6s4p3d1f1g pattern {711111/2111/211/2/1}
 Group   5 Type O   : 12s5p4d2f1g contracted to 6s4p3d1f1g pattern {711111/2111/211/2/1}

Atom   0C    basis set group =>   1
Atom   1C    basis set group =>   1
Atom   2C    basis set group =>   1
Atom   3C    basis set group =>   1
Atom   4C    basis set group =>   1
Atom   5C    basis set group =>   1
Atom   6H    basis set group =>   2
Atom   7H    basis set group =>   2
Atom   8H    basis set group =>   2
Atom   9H    basis set group =>   2
Atom  10N    basis set group =>   3
Atom  11C    basis set group =>   1
Atom  12C    basis set group =>   1
Atom  13C    basis set group =>   1
Atom  14C    basis set group =>   1
Atom  15C    basis set group =>   1
Atom  16C    basis set group =>   1
Atom  17C    basis set group =>   1
Atom  18C    basis set group =>   1
Atom  19H    basis set group =>   2
Atom  20H    basis set group =>   2
Atom  21C    basis set group =>   1
Atom  22H    basis set group =>   2
Atom  23H    basis set group =>   2
Atom  24H    basis set group =>   2
Atom  25H    basis set group =>   2
Atom  26H    basis set group =>   2
Atom  27H    basis set group =>   2
Atom  28H    basis set group =>   2
Atom  29H    basis set group =>   2
Atom  30H    basis set group =>   2
Atom  31H    basis set group =>   2
Atom  32H    basis set group =>   2
Atom  33H    basis set group =>   2
Atom  34H    basis set group =>   2
Atom  35H    basis set group =>   2
Atom  36H    basis set group =>   2
Atom  37H    basis set group =>   2
Atom  38B    basis set group =>   4
Atom  39H    basis set group =>   2
Atom  40C    basis set group =>   1
Atom  41H    basis set group =>   2
Atom  42H    basis set group =>   2
Atom  43H    basis set group =>   2
Atom  44C    basis set group =>   1
Atom  45H    basis set group =>   2
Atom  46H    basis set group =>   2
Atom  47H    basis set group =>   2
Atom  48C    basis set group =>   1
Atom  49H    basis set group =>   2
Atom  50H    basis set group =>   2
Atom  51H    basis set group =>   2
Atom  52C    basis set group =>   1
Atom  53H    basis set group =>   2
Atom  54C    basis set group =>   1
Atom  55C    basis set group =>   1
Atom  56O    basis set group =>   5
Atom  57O    basis set group =>   5
Atom  58B    basis set group =>   4
Atom  59H    basis set group =>   2
Atom  60H    basis set group =>   2
Atom  61H    basis set group =>   2
Atom  62C    basis set group =>   1
Atom  63N    basis set group =>   3
Atom  64C    basis set group =>   1
Atom  65C    basis set group =>   1
Atom  66C    basis set group =>   1
Atom  67C    basis set group =>   1
Atom  68H    basis set group =>   2
Atom  69H    basis set group =>   2
Atom  70H    basis set group =>   2
Atom  71H    basis set group =>   2
Atom  72H    basis set group =>   2
Atom  73H    basis set group =>   2


           ************************************************************
           *        Program running with 24 parallel MPI-processes    *
           *              working on a common directory               *
           ************************************************************
------------------------------------------------------------------------------
                             ORCA STARTUP CALCULATIONS
                           -- RI-GTO INTEGRALS CHOSEN --
------------------------------------------------------------------------------
------------------------------------------------------------------------------
                   ___                                                        
                  /   \      - P O W E R E D   B Y -                         
                 /     \                                                     
                 |  |  |   _    _      __       _____    __    __             
                 |  |  |  | |  | |    /  \     |  _  \  |  |  /  |          
                  \  \/   | |  | |   /    \    | | | |  |  | /  /          
                 / \  \   | |__| |  /  /\  \   | |_| |  |  |/  /          
                |  |  |   |  __  | /  /__\  \  |    /   |      \           
                |  |  |   | |  | | |   __   |  |    \   |  |\   \          
                \     /   | |  | | |  |  |  |  | |\  \  |  | \   \       
                 \___/    |_|  |_| |__|  |__|  |_| \__\ |__|  \__/        
                                                                              
                      - O R C A' S   B I G   F R I E N D -                    
                                      &                                       
                       - I N T E G R A L  F E E D E R -                       
                                                                              
 v1 FN, 2020, v2 2021, v3 2022-2024                                           
------------------------------------------------------------------------------


----------------------
SHARK INTEGRAL PACKAGE
----------------------

Number of atoms                             ...     74
Number of basis functions                   ...    658
Number of shells                            ...    318
Maximum angular momentum                    ...      2
Integral batch strategy                     ... SHARK/LIBINT Hybrid
RI-J (if used) integral strategy            ... SPLIT-RIJ (Revised 2003 algorithm where possible)
Printlevel                                  ...      1
Contraction scheme used                     ... SEGMENTED contraction
Prescreening option                         ... SCHWARTZ
   Thresh                                   ... 2.500e-11
   Tcut                                     ... 2.500e-12
   Tpresel                                  ... 2.500e-12 
Coulomb Range Separation                    ... NOT USED
Exchange Range Separation                   ... Long Range
   Mu parameter                             ... 2.500e-01
   Scaling (regular/separated)              ... 1.957e-01 8.043e-01
Multipole approximations                    ... NOT USED
Finite Nucleus Model                        ... NOT USED
CABS basis                                  ... NOT available
Auxiliary Coulomb fitting basis             ... AVAILABLE
   # of basis functions in Aux-J            ...   2030
   # of shells in Aux-J                     ...    690
   Maximum angular momentum in Aux-J        ...      4
Auxiliary J/K fitting basis                 ... NOT available
Auxiliary Correlation fitting basis         ... NOT available
Auxiliary 'external' fitting basis          ... NOT available

Checking pre-screening integrals            ... done (  0.0 sec) Dimension = 318
Check shell pair data                       ... done (  0.0 sec)
Shell pair information
Shell pair cut-off parameter TPreSel        ...   2.5e-12
Total number of shell pairs                 ...     50721
Shell pairs after pre-screening             ...     31398
Total number of primitive shell pairs       ...    239193
Primitive shell pairs kept                  ...     82257
          la=0 lb=0:  10309 shell pairs
          la=1 lb=0:  11937 shell pairs
          la=1 lb=1:   3533 shell pairs
          la=2 lb=0:   3375 shell pairs
          la=2 lb=1:   1955 shell pairs
          la=2 lb=2:    289 shell pairs

Calculating one electron integrals          ... done (  0.1 sec)
Calculating RI/J V-Matrix + Cholesky decomp.... done (  0.6 sec)
Calculating Nuclear repulsion               ... done (  0.0 sec) ENN=   3581.691327134467 Eh

Diagonalization of the overlap matrix:
Smallest eigenvalue                        ... 3.995e-04
Time for diagonalization                   ...    0.115 sec
Threshold for overlap eigenvalues          ... 1.000e-07
Number of eigenvalues below threshold      ... 0
Time for construction of square roots      ...    0.062 sec
Total time needed                          ...    0.204 sec

-------------------
DFT GRID GENERATION
-------------------

General Integration Accuracy     IntAcc      ... 4.388
Radial Grid Type                 RadialGrid  ... OptM3 with GC (2021)
Angular Grid (max. ang.)         AngularGrid ... 4 (Lebedev-302)
Angular grid pruning method      GridPruning ... 4 (adaptive)
Weight generation scheme         WeightScheme... mBecke (2022)
Basis function cutoff            BFCut       ... 1.0000e-11
Integration weight cutoff        WCut        ... 1.0000e-14
Partially contracted basis set               ... off
Rotationally invariant grid construction     ... off
Angular grids for H and He will be reduced by one unit

Total number of grid points                  ...   319746
Total number of batches                      ...     5034
Average number of points per batch           ...       63
Average number of grid points per atom       ...     4321

--------------------
COSX GRID GENERATION
--------------------

GRIDX 1
-------
General Integration Accuracy     IntAcc      ... 3.816
Radial Grid Type                 RadialGrid  ... OptM3 with GC (2021)
Angular Grid (max. ang.)         AngularGrid ... 1 (Lebedev-50)
Angular grid pruning method      GridPruning ... 4 (adaptive)
Weight generation scheme         WeightScheme... mBecke (2022)
Basis function cutoff            BFCut       ... 1.0000e-11
Integration weight cutoff        WCut        ... 1.0000e-14
Partially contracted basis set               ... on
Rotationally invariant grid construction     ... off
Angular grids for H and He will be reduced by one unit

Total number of grid points                  ...    40549
Total number of batches                      ...      354
Average number of points per batch           ...      114
Average number of grid points per atom       ...      548
UseSFitting                                  ... on

GRIDX 2
-------
General Integration Accuracy     IntAcc      ... 4.020
Radial Grid Type                 RadialGrid  ... OptM3 with GC (2021)
Angular Grid (max. ang.)         AngularGrid ... 2 (Lebedev-110)
Angular grid pruning method      GridPruning ... 4 (adaptive)
Weight generation scheme         WeightScheme... mBecke (2022)
Basis function cutoff            BFCut       ... 1.0000e-11
Integration weight cutoff        WCut        ... 1.0000e-14
Partially contracted basis set               ... on
Rotationally invariant grid construction     ... off
Angular grids for H and He will be reduced by one unit

Total number of grid points                  ...    84188
Total number of batches                      ...      696
Average number of points per batch           ...      120
Average number of grid points per atom       ...     1138
UseSFitting                                  ... on

GRIDX 3
-------
General Integration Accuracy     IntAcc      ... 4.338
Radial Grid Type                 RadialGrid  ... OptM3 with GC (2021)
Angular Grid (max. ang.)         AngularGrid ... 3 (Lebedev-194)
Angular grid pruning method      GridPruning ... 4 (adaptive)
Weight generation scheme         WeightScheme... mBecke (2022)
Basis function cutoff            BFCut       ... 1.0000e-11
Integration weight cutoff        WCut        ... 1.0000e-14
Partially contracted basis set               ... on
Rotationally invariant grid construction     ... off
Angular grids for H and He will be reduced by one unit

Total number of grid points                  ...   182202
Total number of batches                      ...     1462
Average number of points per batch           ...      124
Average number of grid points per atom       ...     2462
UseSFitting                                  ... on
Initializing property integral containers    ... done (  0.0 sec)

SHARK setup successfully completed in   6.7 seconds

Maximum memory used throughout the entire STARTUP-calculation: 99.3 MB


           ************************************************************
           *        Program running with 24 parallel MPI-processes    *
           *              working on a common directory               *
           ************************************************************
-------------------------------------------------------------------------------
                                 ORCA GUESS
                   Start orbitals & Density for SCF / CASSCF
-------------------------------------------------------------------------------

------------
SCF SETTINGS
------------
Hamiltonian:
 Density Functional     Method          .... DFT(GTOs)
 Exchange Functional    Exchange        .... WB97X-D3
 Correlation Functional Correlation     .... WB97X-D3
 Gradients option       PostSCFGGA      .... off
 Hybrid DFT is turned on
   Fraction HF Exchange ScalHFX         ....  0.195728
   Scaling of DF-GGA-X  ScalDFX         ....  0.000000
   Scaling of DF-GGA-C  ScalDFC         ....  1.000000
   Scaling of DF-LDA-C  ScalLDAC        ....  1.000000
   Perturbative correction              ....  0.000000
 Long-range corrected/Screened/Range-Separated Hybrid DFT is turned on
   Amount of maximum screened exact exchange              ....  0.804272
   Range separation parameter mu (erf(mu*r12)/r12)        ....  0.250000
 RI-approximation to the Coulomb term is turned on
   Number of AuxJ basis functions       .... 2030
   RIJ-COSX (HFX calculated with COS-X)).... on


General Settings:
 Integral files         IntName         .... input
 Hartree-Fock type      HFTyp           .... RHF
 Total Charge           Charge          ....    0
 Multiplicity           Mult            ....    1
 Number of Electrons    NEL             ....  238
 Basis Dimension        Dim             ....  658
 Nuclear Repulsion      ENuc            ....   3581.6913271345 Eh

Convergence Acceleration:
 AO-DIIS                CNVDIIS         .... on
   Start iteration      DIISMaxIt       ....    12
   Startup error        DIISStart       ....  0.200000
   # of expansion vecs  DIISMaxEq       ....     5
   Bias factor          DIISBfac        ....   1.050
   Max. coefficient     DIISMaxC        ....  10.000
 MO-DIIS                CNVKDIIS        .... off
 Trust-Rad. Augm. Hess. CNVTRAH         .... auto
   Auto Start mean grad. ratio tolernc. ....  1.125000
   Auto Start start iteration           ....    50
   Auto Start num. interpolation iter.  ....    10
   Max. Number of Micro iterations      ....    24
   Max. Number of Macro iterations      .... Maxiter - #DIIS iter
   Number of Davidson start vectors     ....     2
   Converg. threshold    (grad. norm)   ....   1.000e-05
   Grad. Scal. Fac. for Micro threshold ....   0.100
   Minimum threshold for Micro iter.    ....   1.000e-02
   NR start threshold (gradient norm)   ....   1.000e-04
   Initial trust radius                 ....   0.400
   Minimum AH scaling param. (alpha)    ....   1.000
   Maximum AH scaling param. (alpha)    .... 1000.000
   Quad. conv. algorithm                .... NR
   White noise on init. David. guess    .... on
   Maximum white noise                  ....   0.010
   Pseudo random numbers                .... off
   Inactive MOs                         .... canonical
   Orbital update algorithm             .... Taylor
   Preconditioner                       .... Diag
   Full preconditioner red. dimension   ....   250
 SOSCF                  CNVSOSCF        .... on
   Start iteration      SOSCFMaxIt      ....   150
   Startup grad/error   SOSCFStart      ....  0.003300
   Hessian update       SOSCFHessUp     .... L-BFGS
 Level Shifting         CNVShift        .... on
   Level shift para.    LevelShift      ....    0.2500
   Turn off err/grad.   ShiftErr        ....    0.0010
 Zerner damping         CNVZerner       .... off
 Static damping         CNVDamp         .... on
   Fraction old density DampFac         ....    0.7000
   Max. Damping (<1)    DampMax         ....    0.9800
   Min. Damping (>=0)   DampMin         ....    0.0000
   Turn off err/grad.   DampErr         ....    0.1000

SCF Procedure:
 Maximum # iterations   MaxIter         ....   125
 SCF integral mode      SCFMode         .... Direct
   Integral package                     .... SHARK and LIBINT hybrid scheme
 Reset frequency        DirectResetFreq ....    20
 Integral Threshold     Thresh          ....  2.500e-11 Eh
 Primitive CutOff       TCut            ....  2.500e-12 Eh

Convergence Tolerance:
 Convergence Check Mode ConvCheckMode   .... Total+1el-Energy
 Convergence forced     ConvForced      .... 0
 Energy Change          TolE            ....  1.000e-08 Eh
 1-El. energy change                    ....  1.000e-05 Eh
 Orbital Gradient       TolG            ....  1.000e-05
 Orbital Rotation angle TolX            ....  1.000e-05
 DIIS Error             TolErr          ....  5.000e-07

------------------------------
INITIAL GUESS: MODEL POTENTIAL
------------------------------
Loading Hartree-Fock densities                     ... done
Calculating cut-offs                               ... done
Initializing the effective Hamiltonian             ... done
Setting up the integral package (SHARK)            ... done
Starting the Coulomb interaction                   ... done (   0.5 sec)
Making the grid                                    ... done (   0.6 sec)
Mapping shells                                     ... done
Starting the XC term evaluation                    ... done (   0.2 sec)
  promolecular density results
     # of electrons  =    237.981890393
     EX              =   -182.559211910
     EC              =     -7.972277199
     EX+EC           =   -190.531489109
Transforming the Hamiltonian                       ... done (   0.1 sec)
Diagonalizing the Hamiltonian                      ... done (   0.1 sec)
Back transforming the eigenvectors                 ... done (   0.1 sec)
Now organizing SCF variables                       ... done
                      ------------------
                      INITIAL GUESS DONE (   1.6 sec)
                      ------------------
             **** ENERGY FILE WAS UPDATED (input.en.tmp) ****
Finished Guess after   2.1 sec
Maximum memory used throughout the entire GUESS-calculation: 63.6 MB


           ************************************************************
           *        Program running with 24 parallel MPI-processes    *
           *              working on a common directory               *
           ************************************************************

-------------------------------------------------------------------------------------------
                                      ORCA LEAN-SCF
                              memory conserving SCF solver
-------------------------------------------------------------------------------------------

----------------------------------------D-I-I-S--------------------------------------------
Iteration    Energy (Eh)           Delta-E    RMSDP     MaxDP     DIISErr   Damp  Time(sec)
-------------------------------------------------------------------------------------------
               ***  Starting incremental Fock matrix formation  ***
    1    -1324.6629678594244979     0.00e+00  1.16e-03  5.00e-02  1.84e-01  0.700  13.9
    2    -1324.9906687932589193    -3.28e-01  8.94e-04  3.48e-02  9.70e-02  0.700   6.8
                               ***Turning on AO-DIIS***
    3    -1325.1633278012204755    -1.73e-01  4.60e-04  1.70e-02  5.16e-02  0.700   6.3
    4    -1325.2661073324743484    -1.03e-01  9.85e-04  4.16e-02  3.23e-02  0.000   6.2
    5    -1325.4841558679063382    -2.18e-01  8.37e-05  3.14e-03  3.67e-03  0.000   6.4
                              *** Initializing SOSCF ***
---------------------------------------S-O-S-C-F--------------------------------------
Iteration    Energy (Eh)           Delta-E    RMSDP     MaxDP     MaxGrad    Time(sec)
--------------------------------------------------------------------------------------
    6    -1325.4845897685099771    -4.34e-04  4.22e-05  1.93e-03  2.79e-03     5.7
               *** Restarting incremental Fock matrix formation ***
    7    -1325.4845405179712543     4.93e-05  2.62e-05  1.07e-03  7.99e-04    13.6
    8    -1325.4845640244138849    -2.35e-05  2.43e-05  8.36e-04  2.76e-04     8.7
    9    -1325.4845711291691259    -7.10e-06  7.92e-06  2.33e-04  1.16e-04     8.5
   10    -1325.4845724333554244    -1.30e-06  2.15e-06  7.46e-05  3.86e-05     7.5
   11    -1325.4845725058257813    -7.25e-08  8.35e-07  4.95e-05  2.34e-05     6.2
   12    -1325.4845725426312129    -3.68e-08  3.43e-07  1.26e-05  5.30e-06     5.1
   13    -1325.4845725267241505     1.59e-08  1.22e-07  5.55e-06  1.67e-06     4.3
                  *** Gradient check signals convergence ***

               *****************************************************
               *                     SUCCESS                       *
               *           SCF CONVERGED AFTER  13 CYCLES          *
               *****************************************************

Recomputing exchange energy using gridx3       ... done (   23.805 sec)
Old exchange energy                            :    -62.153317724 Eh
New exchange energy                            :    -62.153357212 Eh
Exchange energy change after final integration :     -0.000039487 Eh
Total energy after final integration           :  -1325.484612014 Eh
             **** ENERGY FILE WAS UPDATED (input.en.tmp) ****

----------------
TOTAL SCF ENERGY
----------------

Total Energy       :      -1325.48461201394593 Eh          -36068.26997 eV

Components:
Nuclear Repulsion  :       3581.69132713446743 Eh           97462.77592 eV
Electronic Energy  :      -4907.17589966119158 Eh         -133531.04482 eV
One Electron Energy:      -8925.30485717478587 Eh         -242869.89243 eV
Two Electron Energy:       4018.12895751359383 Eh          109338.84761 eV

Virial components:
Potential Energy   :      -2641.69892416140556 Eh          -71884.28225 eV
Kinetic Energy     :       1316.21431214745985 Eh           35816.01228 eV
Virial Ratio       :          2.00704315382452

DFT components:
N(Alpha)           :      118.999702051530 electrons
N(Beta)            :      118.999702051530 electrons
N(Total)           :      237.999404103059 electrons
E(XC)              :     -133.929397209818 Eh       

---------------
SCF CONVERGENCE
---------------

  Last Energy change         ...   -1.5907e-08  Tolerance :   1.0000e-08
  Last MAX-Density change    ...    5.5482e-06  Tolerance :   1.0000e-07
  Last RMS-Density change    ...    1.2242e-07  Tolerance :   5.0000e-09
  Last DIIS Error            ...    2.7899e-03  Tolerance :   5.0000e-07
  Last Orbital Gradient      ...    1.6663e-06  Tolerance :   1.0000e-05
  Last Orbital Rotation      ...    3.5517e-06  Tolerance :   1.0000e-05


----------------
ORBITAL ENERGIES
----------------

  NO   OCC          E(Eh)            E(eV) 
   0   2.0000     -19.257688      -524.0283 
   1   2.0000     -19.257078      -524.0117 
   2   2.0000     -14.482029      -394.0760 
   3   2.0000     -14.400395      -391.8547 
   4   2.0000     -10.357728      -281.8481 
   5   2.0000     -10.355444      -281.7859 
   6   2.0000     -10.314363      -280.6681 
   7   2.0000     -10.309130      -280.5257 
   8   2.0000     -10.308242      -280.5015 
   9   2.0000     -10.306343      -280.4499 
  10   2.0000     -10.298161      -280.2272 
  11   2.0000     -10.284505      -279.8556 
  12   2.0000     -10.282377      -279.7977 
  13   2.0000     -10.282012      -279.7878 
  14   2.0000     -10.281274      -279.7677 
  15   2.0000     -10.272938      -279.5409 
  16   2.0000     -10.272937      -279.5408 
  17   2.0000     -10.270828      -279.4834 
  18   2.0000     -10.267847      -279.4023 
  19   2.0000     -10.267291      -279.3872 
  20   2.0000     -10.266874      -279.3758 
  21   2.0000     -10.265325      -279.3337 
  22   2.0000     -10.263583      -279.2863 
  23   2.0000     -10.263423      -279.2819 
  24   2.0000     -10.262707      -279.2624 
  25   2.0000     -10.255118      -279.0560 
  26   2.0000     -10.254583      -279.0414 
  27   2.0000     -10.254579      -279.0413 
  28   2.0000     -10.252280      -278.9787 
  29   2.0000     -10.249143      -278.8934 
  30   2.0000      -6.907970      -187.9754 
  31   2.0000      -6.824103      -185.6933 
  32   2.0000      -1.186635       -32.2900 
  33   2.0000      -1.116549       -30.3828 
  34   2.0000      -1.096260       -29.8308 
  35   2.0000      -1.028675       -27.9917 
  36   2.0000      -0.948177       -25.8012 
  37   2.0000      -0.930493       -25.3200 
  38   2.0000      -0.911174       -24.7943 
  39   2.0000      -0.908474       -24.7208 
  40   2.0000      -0.899660       -24.4810 
  41   2.0000      -0.872463       -23.7409 
  42   2.0000      -0.847262       -23.0552 
  43   2.0000      -0.840936       -22.8830 
  44   2.0000      -0.828247       -22.5377 
  45   2.0000      -0.826603       -22.4930 
  46   2.0000      -0.811445       -22.0805 
  47   2.0000      -0.796304       -21.6685 
  48   2.0000      -0.794545       -21.6207 
  49   2.0000      -0.786056       -21.3897 
  50   2.0000      -0.776282       -21.1237 
  51   2.0000      -0.770365       -20.9627 
  52   2.0000      -0.743156       -20.2223 
  53   2.0000      -0.714248       -19.4357 
  54   2.0000      -0.703603       -19.1460 
  55   2.0000      -0.685770       -18.6608 
  56   2.0000      -0.677018       -18.4226 
  57   2.0000      -0.666615       -18.1395 
  58   2.0000      -0.665201       -18.1010 
  59   2.0000      -0.664890       -18.0926 
  60   2.0000      -0.645902       -17.5759 
  61   2.0000      -0.630272       -17.1506 
  62   2.0000      -0.616507       -16.7760 
  63   2.0000      -0.600832       -16.3495 
  64   2.0000      -0.583224       -15.8703 
  65   2.0000      -0.580061       -15.7843 
  66   2.0000      -0.574054       -15.6208 
  67   2.0000      -0.565547       -15.3893 
  68   2.0000      -0.559271       -15.2185 
  69   2.0000      -0.555175       -15.1071 
  70   2.0000      -0.550669       -14.9845 
  71   2.0000      -0.549252       -14.9459 
  72   2.0000      -0.543249       -14.7825 
  73   2.0000      -0.538792       -14.6613 
  74   2.0000      -0.525508       -14.2998 
  75   2.0000      -0.520478       -14.1629 
  76   2.0000      -0.519152       -14.1268 
  77   2.0000      -0.507228       -13.8024 
  78   2.0000      -0.504236       -13.7210 
  79   2.0000      -0.503796       -13.7090 
  80   2.0000      -0.501621       -13.6498 
  81   2.0000      -0.499753       -13.5990 
  82   2.0000      -0.499054       -13.5799 
  83   2.0000      -0.497884       -13.5481 
  84   2.0000      -0.493314       -13.4238 
  85   2.0000      -0.486281       -13.2324 
  86   2.0000      -0.483633       -13.1603 
  87   2.0000      -0.478188       -13.0122 
  88   2.0000      -0.474340       -12.9074 
  89   2.0000      -0.473380       -12.8813 
  90   2.0000      -0.467081       -12.7099 
  91   2.0000      -0.465572       -12.6689 
  92   2.0000      -0.464020       -12.6266 
  93   2.0000      -0.463628       -12.6160 
  94   2.0000      -0.459746       -12.5103 
  95   2.0000      -0.456222       -12.4144 
  96   2.0000      -0.454423       -12.3655 
  97   2.0000      -0.447835       -12.1862 
  98   2.0000      -0.442029       -12.0282 
  99   2.0000      -0.440535       -11.9876 
 100   2.0000      -0.437118       -11.8946 
 101   2.0000      -0.433366       -11.7925 
 102   2.0000      -0.429551       -11.6887 
 103   2.0000      -0.426081       -11.5943 
 104   2.0000      -0.420273       -11.4362 
 105   2.0000      -0.418218       -11.3803 
 106   2.0000      -0.405319       -11.0293 
 107   2.0000      -0.402757       -10.9596 
 108   2.0000      -0.397980       -10.8296 
 109   2.0000      -0.391367       -10.6496 
 110   2.0000      -0.384847       -10.4722 
 111   2.0000      -0.383361       -10.4318 
 112   2.0000      -0.368861       -10.0372 
 113   2.0000      -0.367368        -9.9966 
 114   2.0000      -0.317111        -8.6290 
 115   2.0000      -0.312618        -8.5068 
 116   2.0000      -0.306552        -8.3417 
 117   2.0000      -0.286614        -7.7992 
 118   2.0000      -0.271375        -7.3845 
 119   0.0000       0.053851         1.4654 
 120   0.0000       0.090796         2.4707 
 121   0.0000       0.093322         2.5394 
 122   0.0000       0.143257         3.8982 
 123   0.0000       0.155765         4.2386 
 124   0.0000       0.162160         4.4126 
 125   0.0000       0.170849         4.6490 
 126   0.0000       0.180187         4.9031 
 127   0.0000       0.187679         5.1070 
 128   0.0000       0.193658         5.2697 
 129   0.0000       0.197028         5.3614 
*Only the first 10 virtual orbitals were printed.

                    ********************************
                    * MULLIKEN POPULATION ANALYSIS *
                    ********************************

-----------------------
MULLIKEN ATOMIC CHARGES
-----------------------
   0 C :    0.135999
   1 C :    0.044129
   2 C :   -0.181256
   3 C :   -0.111640
   4 C :   -0.142211
   5 C :   -0.104817
   6 H :    0.125357
   7 H :    0.111293
   8 H :    0.113263
   9 H :    0.106194
  10 N :   -0.506749
  11 C :    0.152385
  12 C :    0.148964
  13 C :   -0.186304
  14 C :   -0.336771
  15 C :   -0.328037
  16 C :   -0.185205
  17 C :   -0.330330
  18 C :   -0.328047
  19 H :    0.097834
  20 H :    0.106905
  21 C :   -0.230281
  22 H :    0.103278
  23 H :    0.121336
  24 H :    0.123687
  25 H :    0.101225
  26 H :    0.104194
  27 H :    0.111780
  28 H :    0.098950
  29 H :    0.100819
  30 H :    0.124377
  31 H :    0.102113
  32 H :    0.122717
  33 H :    0.112761
  34 H :    0.104272
  35 H :    0.100218
  36 H :    0.109630
  37 H :    0.100789
  38 B :    0.037464
  39 H :   -0.047909
  40 C :   -0.351440
  41 H :    0.134212
  42 H :    0.132028
  43 H :    0.118287
  44 C :   -0.351689
  45 H :    0.118962
  46 H :    0.129846
  47 H :    0.132972
  48 C :   -0.341220
  49 H :    0.110537
  50 H :    0.132289
  51 H :    0.139355
  52 C :   -0.352769
  53 H :    0.116623
  54 C :    0.213209
  55 C :    0.202830
  56 O :   -0.488274
  57 O :   -0.478032
  58 B :    0.565451
  59 H :    0.135801
  60 H :    0.130771
  61 H :   -0.005196
  62 C :   -0.211255
  63 N :   -0.405568
  64 C :    0.050118
  65 C :   -0.139100
  66 C :   -0.194845
  67 C :    0.042881
  68 H :    0.150995
  69 H :    0.124401
  70 H :    0.165061
  71 H :    0.123070
  72 H :    0.116369
  73 H :    0.130947
Sum of atomic charges:   -0.0000000

--------------------------------
MULLIKEN REDUCED ORBITAL CHARGES
--------------------------------
  0 C s       :     3.122712  s :     3.122712
      pz      :     0.951272  p :     2.682682
      px      :     0.923069
      py      :     0.808342
      dz2     :     0.005823  d :     0.058607
      dxz     :     0.007487
      dyz     :     0.009493
      dx2y2   :     0.018746
      dxy     :     0.017058

  1 C s       :     3.199046  s :     3.199046
      pz      :     0.935663  p :     2.725023
      px      :     0.923992
      py      :     0.865368
      dz2     :     0.003444  d :     0.031802
      dxz     :     0.003358
      dyz     :     0.006995
      dx2y2   :     0.008187
      dxy     :     0.009819

  2 C s       :     3.185564  s :     3.185564
      pz      :     0.974965  p :     2.959952
      px      :     0.978267
      py      :     1.006720
      dz2     :     0.004590  d :     0.035740
      dxz     :     0.004893
      dyz     :     0.005213
      dx2y2   :     0.009541
      dxy     :     0.011503

  3 C s       :     3.157965  s :     3.157965
      pz      :     0.988321  p :     2.918438
      px      :     0.958569
      py      :     0.971549
      dz2     :     0.004212  d :     0.035237
      dxz     :     0.005335
      dyz     :     0.005174
      dx2y2   :     0.010534
      dxy     :     0.009982

  4 C s       :     3.168448  s :     3.168448
      pz      :     0.999010  p :     2.938411
      px      :     1.003005
      py      :     0.936396
      dz2     :     0.002907  d :     0.035352
      dxz     :     0.004505
      dyz     :     0.007380
      dx2y2   :     0.011143
      dxy     :     0.009417

  5 C s       :     3.162923  s :     3.162923
      pz      :     0.986029  p :     2.907733
      px      :     0.962465
      py      :     0.959239
      dz2     :     0.004637  d :     0.034161
      dxz     :     0.004721
      dyz     :     0.005230
      dx2y2   :     0.008829
      dxy     :     0.010744

  6 H s       :     0.861811  s :     0.861811
      pz      :     0.002760  p :     0.012832
      px      :     0.004072
      py      :     0.006001

  7 H s       :     0.876507  s :     0.876507
      pz      :     0.002876  p :     0.012200
      px      :     0.002615
      py      :     0.006710

  8 H s       :     0.874517  s :     0.874517
      pz      :     0.003720  p :     0.012221
      px      :     0.006619
      py      :     0.001882

  9 H s       :     0.881104  s :     0.881104
      pz      :     0.002792  p :     0.012702
      px      :     0.003746
      py      :     0.006165

 10 N s       :     3.569388  s :     3.569388
      pz      :     1.192244  p :     3.902304
      px      :     1.577195
      py      :     1.132865
      dz2     :     0.006521  d :     0.035057
      dxz     :     0.006090
      dyz     :     0.010652
      dx2y2   :     0.004923
      dxy     :     0.006871

 11 C s       :     3.147499  s :     3.147499
      pz      :     0.828188  p :     2.636660
      px      :     0.889932
      py      :     0.918540
      dz2     :     0.013973  d :     0.063455
      dxz     :     0.012167
      dyz     :     0.013550
      dx2y2   :     0.009772
      dxy     :     0.013994

 12 C s       :     3.146890  s :     3.146890
      pz      :     0.852678  p :     2.640606
      px      :     0.900036
      py      :     0.887892
      dz2     :     0.008363  d :     0.063540
      dxz     :     0.015797
      dyz     :     0.017293
      dx2y2   :     0.007689
      dxy     :     0.014399

 13 C s       :     3.211260  s :     3.211260
      pz      :     0.975339  p :     2.937485
      px      :     0.999778
      py      :     0.962368
      dz2     :     0.005092  d :     0.037559
      dxz     :     0.008303
      dyz     :     0.009647
      dx2y2   :     0.004624
      dxy     :     0.009892

 14 C s       :     3.237184  s :     3.237184
      pz      :     0.992457  p :     3.068719
      px      :     1.071402
      py      :     1.004860
      dz2     :     0.006257  d :     0.030868
      dxz     :     0.004077
      dyz     :     0.007815
      dx2y2   :     0.003064
      dxy     :     0.009654

 15 C s       :     3.233254  s :     3.233254
      pz      :     1.045215  p :     3.064255
      px      :     0.984102
      py      :     1.034938
      dz2     :     0.004675  d :     0.030529
      dxz     :     0.005027
      dyz     :     0.008247
      dx2y2   :     0.005113
      dxy     :     0.007466

 16 C s       :     3.211282  s :     3.211282
      pz      :     0.973235  p :     2.936309
      px      :     0.984432
      py      :     0.978642
      dz2     :     0.004681  d :     0.037614
      dxz     :     0.007953
      dyz     :     0.011223
      dx2y2   :     0.004538
      dxy     :     0.009219

 17 C s       :     3.240268  s :     3.240268
      pz      :     1.019261  p :     3.059270
      px      :     1.018108
      py      :     1.021901
      dz2     :     0.001737  d :     0.030792
      dxz     :     0.008335
      dyz     :     0.009831
      dx2y2   :     0.002330
      dxy     :     0.008558

 18 C s       :     3.233106  s :     3.233106
      pz      :     1.017034  p :     3.064436
      px      :     1.016823
      py      :     1.030578
      dz2     :     0.002274  d :     0.030506
      dxz     :     0.008541
      dyz     :     0.008537
      dx2y2   :     0.001272
      dxy     :     0.009881

 19 H s       :     0.890796  s :     0.890796
      pz      :     0.005108  p :     0.011370
      px      :     0.003160
      py      :     0.003101

 20 H s       :     0.881715  s :     0.881715
      pz      :     0.002739  p :     0.011381
      px      :     0.005291
      py      :     0.003351

 21 C s       :     3.215800  s :     3.215800
      pz      :     0.966034  p :     2.976128
      px      :     1.025119
      py      :     0.984975
      dz2     :     0.006077  d :     0.038354
      dxz     :     0.007909
      dyz     :     0.010106
      dx2y2   :     0.002881
      dxy     :     0.011380

 22 H s       :     0.885216  s :     0.885216
      pz      :     0.005642  p :     0.011507
      px      :     0.002888
      py      :     0.002976

 23 H s       :     0.866855  s :     0.866855
      pz      :     0.002273  p :     0.011809
      px      :     0.006345
      py      :     0.003190

 24 H s       :     0.864535  s :     0.864535
      pz      :     0.002748  p :     0.011778
      px      :     0.004359
      py      :     0.004671

 25 H s       :     0.886745  s :     0.886745
      pz      :     0.004436  p :     0.012030
      px      :     0.002253
      py      :     0.005341

 26 H s       :     0.884263  s :     0.884263
      pz      :     0.005897  p :     0.011543
      px      :     0.002851
      py      :     0.002795

 27 H s       :     0.876417  s :     0.876417
      pz      :     0.003054  p :     0.011802
      px      :     0.004105
      py      :     0.004643

 28 H s       :     0.889681  s :     0.889681
      pz      :     0.004544  p :     0.011369
      px      :     0.002648
      py      :     0.004177

 29 H s       :     0.887838  s :     0.887838
      pz      :     0.002734  p :     0.011343
      px      :     0.005289
      py      :     0.003320

 30 H s       :     0.863827  s :     0.863827
      pz      :     0.003407  p :     0.011795
      px      :     0.003522
      py      :     0.004867

 31 H s       :     0.886336  s :     0.886336
      pz      :     0.004444  p :     0.011552
      px      :     0.003186
      py      :     0.003922

 32 H s       :     0.865155  s :     0.865155
      pz      :     0.003578  p :     0.012128
      px      :     0.004887
      py      :     0.003663

 33 H s       :     0.875458  s :     0.875458
      pz      :     0.003269  p :     0.011781
      px      :     0.003865
      py      :     0.004647

 34 H s       :     0.884190  s :     0.884190
      pz      :     0.004771  p :     0.011538
      px      :     0.003188
      py      :     0.003579

 35 H s       :     0.887769  s :     0.887769
      pz      :     0.003689  p :     0.012013
      px      :     0.004036
      py      :     0.004287

 36 H s       :     0.879037  s :     0.879037
      pz      :     0.002994  p :     0.011333
      px      :     0.004127
      py      :     0.004211

 37 H s       :     0.887661  s :     0.887661
      pz      :     0.002732  p :     0.011550
      px      :     0.005264
      py      :     0.003553

 38 B s       :     2.912707  s :     2.912707
      pz      :     0.630421  p :     1.993057
[...]
freq.     893.90  E(vib)   ...       0.03 
freq.     895.89  E(vib)   ...       0.03 
freq.     901.72  E(vib)   ...       0.03 
freq.     912.67  E(vib)   ...       0.03 
freq.     923.04  E(vib)   ...       0.03 
freq.     929.60  E(vib)   ...       0.03 
freq.     930.92  E(vib)   ...       0.03 
freq.     935.37  E(vib)   ...       0.03 
freq.     936.14  E(vib)   ...       0.03 
freq.     946.73  E(vib)   ...       0.03 
freq.     953.85  E(vib)   ...       0.03 
freq.     963.81  E(vib)   ...       0.03 
freq.     975.80  E(vib)   ...       0.03 
freq.     982.62  E(vib)   ...       0.02 
freq.     991.99  E(vib)   ...       0.02 
freq.    1001.68  E(vib)   ...       0.02 
freq.    1002.31  E(vib)   ...       0.02 
freq.    1020.57  E(vib)   ...       0.02 
freq.    1020.88  E(vib)   ...       0.02 
freq.    1024.02  E(vib)   ...       0.02 
freq.    1028.31  E(vib)   ...       0.02 
freq.    1030.55  E(vib)   ...       0.02 
freq.    1041.46  E(vib)   ...       0.02 
freq.    1052.53  E(vib)   ...       0.02 
freq.    1073.59  E(vib)   ...       0.02 
freq.    1082.78  E(vib)   ...       0.02 
freq.    1085.92  E(vib)   ...       0.02 
freq.    1090.77  E(vib)   ...       0.02 
freq.    1095.31  E(vib)   ...       0.02 
freq.    1100.90  E(vib)   ...       0.02 
freq.    1114.46  E(vib)   ...       0.01 
freq.    1132.12  E(vib)   ...       0.01 
freq.    1144.69  E(vib)   ...       0.01 
freq.    1160.96  E(vib)   ...       0.01 
freq.    1162.46  E(vib)   ...       0.01 
freq.    1164.95  E(vib)   ...       0.01 
freq.    1188.22  E(vib)   ...       0.01 
freq.    1194.25  E(vib)   ...       0.01 
freq.    1196.99  E(vib)   ...       0.01 
freq.    1207.69  E(vib)   ...       0.01 
freq.    1209.17  E(vib)   ...       0.01 
freq.    1224.45  E(vib)   ...       0.01 
freq.    1240.11  E(vib)   ...       0.01 
freq.    1251.52  E(vib)   ...       0.01 
freq.    1254.28  E(vib)   ...       0.01 
freq.    1262.16  E(vib)   ...       0.01 
freq.    1266.45  E(vib)   ...       0.01 
freq.    1267.77  E(vib)   ...       0.01 
freq.    1272.90  E(vib)   ...       0.01 
freq.    1292.24  E(vib)   ...       0.01 
freq.    1308.07  E(vib)   ...       0.01 
freq.    1310.28  E(vib)   ...       0.01 
freq.    1316.73  E(vib)   ...       0.01 
freq.    1323.59  E(vib)   ...       0.01 
freq.    1334.49  E(vib)   ...       0.01 
freq.    1347.40  E(vib)   ...       0.01 
freq.    1365.03  E(vib)   ...       0.01 
freq.    1382.68  E(vib)   ...       0.01 
freq.    1384.82  E(vib)   ...       0.00 
freq.    1402.61  E(vib)   ...       0.00 
freq.    1409.45  E(vib)   ...       0.00 
freq.    1410.80  E(vib)   ...       0.00 
freq.    1413.83  E(vib)   ...       0.00 
freq.    1420.60  E(vib)   ...       0.00 
freq.    1422.11  E(vib)   ...       0.00 
freq.    1425.90  E(vib)   ...       0.00 
freq.    1431.99  E(vib)   ...       0.00 
freq.    1434.12  E(vib)   ...       0.00 
freq.    1438.77  E(vib)   ...       0.00 
freq.    1439.47  E(vib)   ...       0.00 
freq.    1445.09  E(vib)   ...       0.00 
freq.    1473.19  E(vib)   ...       0.00 
freq.    1483.02  E(vib)   ...       0.00 
freq.    1484.67  E(vib)   ...       0.00 
freq.    1489.94  E(vib)   ...       0.00 
freq.    1491.64  E(vib)   ...       0.00 
freq.    1492.11  E(vib)   ...       0.00 
freq.    1494.06  E(vib)   ...       0.00 
freq.    1496.18  E(vib)   ...       0.00 
freq.    1499.13  E(vib)   ...       0.00 
freq.    1499.57  E(vib)   ...       0.00 
freq.    1501.01  E(vib)   ...       0.00 
freq.    1502.42  E(vib)   ...       0.00 
freq.    1504.98  E(vib)   ...       0.00 
freq.    1512.38  E(vib)   ...       0.00 
freq.    1513.93  E(vib)   ...       0.00 
freq.    1516.19  E(vib)   ...       0.00 
freq.    1516.61  E(vib)   ...       0.00 
freq.    1521.35  E(vib)   ...       0.00 
freq.    1522.12  E(vib)   ...       0.00 
freq.    1523.66  E(vib)   ...       0.00 
freq.    1530.60  E(vib)   ...       0.00 
freq.    1533.22  E(vib)   ...       0.00 
freq.    1536.18  E(vib)   ...       0.00 
freq.    1541.94  E(vib)   ...       0.00 
freq.    1546.34  E(vib)   ...       0.00 
freq.    1556.00  E(vib)   ...       0.00 
freq.    1599.03  E(vib)   ...       0.00 
freq.    1658.30  E(vib)   ...       0.00 
freq.    1688.52  E(vib)   ...       0.00 
freq.    2350.21  E(vib)   ...       0.00 
freq.    2641.19  E(vib)   ...       0.00 
freq.    3054.04  E(vib)   ...       0.00 
freq.    3055.93  E(vib)   ...       0.00 
freq.    3067.09  E(vib)   ...       0.00 
freq.    3072.30  E(vib)   ...       0.00 
freq.    3072.74  E(vib)   ...       0.00 
freq.    3076.62  E(vib)   ...       0.00 
freq.    3077.61  E(vib)   ...       0.00 
freq.    3079.03  E(vib)   ...       0.00 
freq.    3080.63  E(vib)   ...       0.00 
freq.    3080.95  E(vib)   ...       0.00 
freq.    3083.93  E(vib)   ...       0.00 
freq.    3087.59  E(vib)   ...       0.00 
freq.    3109.83  E(vib)   ...       0.00 
freq.    3111.12  E(vib)   ...       0.00 
freq.    3120.62  E(vib)   ...       0.00 
freq.    3153.52  E(vib)   ...       0.00 
freq.    3155.82  E(vib)   ...       0.00 
freq.    3160.75  E(vib)   ...       0.00 
freq.    3161.93  E(vib)   ...       0.00 
freq.    3162.80  E(vib)   ...       0.00 
freq.    3165.40  E(vib)   ...       0.00 
freq.    3171.21  E(vib)   ...       0.00 
freq.    3173.20  E(vib)   ...       0.00 
freq.    3175.45  E(vib)   ...       0.00 
freq.    3175.78  E(vib)   ...       0.00 
freq.    3181.90  E(vib)   ...       0.00 
freq.    3182.90  E(vib)   ...       0.00 
freq.    3184.67  E(vib)   ...       0.00 
freq.    3185.02  E(vib)   ...       0.00 
freq.    3190.73  E(vib)   ...       0.00 
freq.    3192.17  E(vib)   ...       0.00 
freq.    3196.72  E(vib)   ...       0.00 
freq.    3199.24  E(vib)   ...       0.00 
freq.    3202.18  E(vib)   ...       0.00 
freq.    3211.88  E(vib)   ...       0.00 
freq.    3227.84  E(vib)   ...       0.00 
freq.    3248.51  E(vib)   ...       0.00 
freq.    3272.11  E(vib)   ...       0.00 
freq.    3285.78  E(vib)   ...       0.00 
freq.    3300.22  E(vib)   ...       0.00 

------------
INNER ENERGY
------------

The inner energy is: U= E(el) + E(ZPE) + E(vib) + E(rot) + E(trans)
    E(el)   - is the total energy from the electronic structure calculation
              = E(kin-el) + E(nuc-el) + E(el-el) + E(nuc-nuc)
    E(ZPE)  - the the zero temperature vibrational energy from the frequency calculation
    E(vib)  - the the finite temperature correction to E(ZPE) due to population
              of excited vibrational states
    E(rot)  - is the rotational thermal energy
    E(trans)- is the translational thermal energy

Summary of contributions to the inner energy U:
Electronic energy                ...  -1325.53769659 Eh
Zero point energy                ...      0.65635708 Eh     411.87 kcal/mol
Thermal vibrational correction   ...      0.02739295 Eh      17.19 kcal/mol
Thermal rotational correction    ...      0.00141627 Eh       0.89 kcal/mol
Thermal translational correction ...      0.00141627 Eh       0.89 kcal/mol
-----------------------------------------------------------------------
Total thermal energy                  -1324.85111402 Eh


Summary of corrections to the electronic energy:
(perhaps to be used in another calculation)
Total thermal correction                  0.03022549 Eh      18.97 kcal/mol
Non-thermal (ZPE) correction              0.65635708 Eh     411.87 kcal/mol
-----------------------------------------------------------------------
Total correction                          0.68658257 Eh     430.84 kcal/mol


--------
ENTHALPY
--------

The enthalpy is H = U + kB*T
                kB is Boltzmann's constant
Total thermal energy              ...  -1324.85111402 Eh 
Thermal Enthalpy correction       ...      0.00094421 Eh       0.59 kcal/mol
-----------------------------------------------------------------------
Total Enthalpy                    ...  -1324.85016981 Eh


Note: Only C1 symmetry has been detected, increase convergence thresholds 
      if your molecule has a higher symmetry. Symmetry factor of 1.0 is   
      used for the rotational entropy correction. 
 

Note: Rotational entropy computed according to Herzberg 
Infrared and Raman Spectra, Chapter V,1, Van Nostrand Reinhold, 1945 
Point Group:  C1, Symmetry Number:   1  
Rotational constants in cm-1:     0.007866     0.003118     0.002958 

Vibrational entropy computed according to the QRRHO of S. Grimme
Chem.Eur.J. 2012 18 9955 using a reference frequency of 100.0 cm-1


-------
ENTROPY
-------

The entropy contributions are T*S = T*(S(el)+S(vib)+S(rot)+S(trans))
     S(el)   - electronic entropy
     S(vib)  - vibrational entropy
     S(rot)  - rotational entropy
     S(trans)- translational entropy
The entropies will be listed as multiplied by the temperature to get
units of energy

Electronic entropy                ...      0.00000000 Eh      0.00 kcal/mol
Vibrational entropy               ...      0.04660347 Eh     29.24 kcal/mol
Rotational entropy                ...      0.01727152 Eh     10.84 kcal/mol
Translational entropy             ...      0.02095749 Eh     13.15 kcal/mol
-----------------------------------------------------------------------
Final entropy term                ...      0.08483248 Eh     53.23 kcal/mol

In case the symmetry of your molecule has not been determined correctly
or in case you have a reason to use a different symmetry number we print 
out the resulting rotational entropy values for sn=1,12:

 non-linear molecules -----------------------------------
|  sn= 1 | S(rot)=       0.01727152 Eh     10.84 kcal/mol|
|  sn= 2 | S(rot)=       0.01661706 Eh     10.43 kcal/mol|
|  sn= 3 | S(rot)=       0.01623423 Eh     10.19 kcal/mol|
|  sn= 4 | S(rot)=       0.01596260 Eh     10.02 kcal/mol|
|  sn= 5 | S(rot)=       0.01575191 Eh      9.88 kcal/mol|
|  sn= 6 | S(rot)=       0.01557977 Eh      9.78 kcal/mol|
|  sn= 7 | S(rot)=       0.01543422 Eh      9.69 kcal/mol|
|  sn= 8 | S(rot)=       0.01530815 Eh      9.61 kcal/mol|
|  sn= 9 | S(rot)=       0.01519694 Eh      9.54 kcal/mol|
|  sn=10 | S(rot)=       0.01509746 Eh      9.47 kcal/mol|
|  sn=11 | S(rot)=       0.01500747 Eh      9.42 kcal/mol|
|  sn=12 | S(rot)=       0.01492531 Eh      9.37 kcal/mol|
 linear molecules ---------------------------------------
|  Dinfh | S(rot)=       0.01082403 Eh      6.79 kcal/mol|
|  Cinfv | S(rot)=       0.01147849 Eh      7.20 kcal/mol|
 --------------------------------------------------------


-------------------
GIBBS FREE ENERGY
-------------------

The Gibbs free energy is G = H - T*S

Total enthalpy                    ...  -1324.85016981 Eh 
Total entropy correction          ...     -0.08483248 Eh    -53.23 kcal/mol
-----------------------------------------------------------------------
Final Gibbs free energy         ...  -1324.93500229 Eh

For completeness - the Gibbs free energy minus the electronic energy
G-E(el)                           ...      0.60269430 Eh    378.20 kcal/mol


Reading the hessian file           ...... done
Determining length of initial displacement:
  Requested energy change (quadratic behavior): 2.000 mEh
  Resulting scaling factor for initial displacement along normalized TS mode: 0.7113

         *************************************************************
         *                          FORWARD IRC                      *
         *************************************************************

Iteration    E(Eh)      dE(kcal/mol)  max(|G|)   RMS(G) 
Convergence thresholds                0.002000  0.000500            
    0     -1325.539438   -1.092902    0.005725  0.000771
    1     -1325.539623   -1.208699    0.003837  0.000559
    2     -1325.539730   -1.275847    0.002837  0.000458
    3     -1325.539818   -1.331464    0.002334  0.000389
    4     -1325.539909   -1.388188    0.002047  0.000348
    5     -1325.540003   -1.447118    0.001885  0.000342

                      ***********************HURRAY********************
                      ***            THE IRC HAS CONVERGED          ***
                      *************************************************


         *************************************************************
         *                          BACKWARD IRC                     *
         *************************************************************

Iteration    E(Eh)      dE(kcal/mol)  max(|G|)   RMS(G) 
Convergence thresholds                0.002000  0.000500            
    0     -1325.538945   -0.783299    0.007481  0.000977
    1     -1325.539233   -0.964399    0.003269  0.000686
    2     -1325.539368   -1.048777    0.002876  0.000530
    3     -1325.539561   -1.170160    0.002893  0.000409
    4     -1325.539768   -1.299838    0.002712  0.000397
    5     -1325.539976   -1.430213    0.002791  0.000391
    6     -1325.540182   -1.559900    0.002435  0.000385
    7     -1325.540385   -1.687115    0.002494  0.000379
    8     -1325.540582   -1.810577    0.002021  0.000370
    9     -1325.540770   -1.928528    0.002133  0.000363
   10     -1325.540947   -2.039470    0.001653  0.000354

                      ***********************HURRAY********************
                      ***            THE IRC HAS CONVERGED          ***
                      *************************************************


---------------------------------------------------------------
                       IRC PATH SUMMARY              
---------------------------------------------------------------
All gradients are in Eh/Bohr.

Step        E(Eh)      dE(kcal/mol)  max(|G|)   RMS(G) 
   1     -1325.540947   -2.039470    0.001653  0.000354
   2     -1325.540770   -1.928528    0.002133  0.000363
   3     -1325.540582   -1.810577    0.002021  0.000370
   4     -1325.540385   -1.687115    0.002494  0.000379
   5     -1325.540182   -1.559900    0.002435  0.000385
   6     -1325.539976   -1.430213    0.002791  0.000391
   7     -1325.539768   -1.299838    0.002712  0.000397
   8     -1325.539561   -1.170160    0.002893  0.000409
   9     -1325.539368   -1.048777    0.002876  0.000530
  10     -1325.539233   -0.964399    0.003269  0.000686
  11     -1325.538945   -0.783299    0.007481  0.000977
  12     -1325.537697    0.000000    0.000033  0.000005 <= TS
  13     -1325.539438   -1.092902    0.005725  0.000771
  14     -1325.539623   -1.208699    0.003837  0.000559
  15     -1325.539730   -1.275847    0.002837  0.000458
  16     -1325.539818   -1.331464    0.002334  0.000389
  17     -1325.539909   -1.388188    0.002047  0.000348
  18     -1325.540003   -1.447118    0.001885  0.000342

--------------------------------
SUGGESTED CITATIONS FOR THIS RUN
--------------------------------

Below you find a list of papers that are relevant to this ORCA run
We neither can nor want to force you to cite these papers, but we appreciate if you do
You receive ORCA, which is the product of decades of hard work by many enthusiastic individuals, for free
The only thing we kindly ask in return is that you cite our papers,
We deeply appreciate it, if you show your appreciation for ORCA by not just citing the generic ORCA reference.

Please note that relegating all ORCA citations to the supporting information does *not* help us.
SI sections are not indexed - citations you put there will not count into any citation statistics
But we need these citations in order to attract the funding resources that allow us to do what we are doing

Therefore, if you are a happy ORCA user, please consider citing a few of the papers listed below in the main body of your paper

In addition to the list printed below, the program has created the file input.bibtex that contains the list in bibtex format
You can import this file easily into all common literature databanks and citation aid programs


List of essential papers. We consider these as the minimum necessary citations

  1. Neese,F.
     Software update: the ORCA program system, version 5.0
     WIRES Comput. Molec. Sci., 2022 12(1)e1606
     doi.org/10.1002/wcms.1606

List of papers to cite with high priority. The work reported in these papers was absolutely
necessary for this run to complete.
Our perspective: the developers of density functionals and basis sets usually get cited in chemistry papers
Good! But without the algorithms to do something with them, the functionals or basis sets would not do anything.
Hence, in our opinion, the algorithm design and method developments papers are equally worthy of getting cited

  1. Neese,F.
     An improvement of the resolution of the identity approximation for the formation of the Coulomb matrix
     J. Comp. Chem., 2003 24(14)1740-1747
     doi.org/10.1002/jcc.10318
  2. Neese,F.; Wennmohs,F.; Hansen,A.; Becker,U.
     Efficient, approximate and parallel Hartree-Fock and hybrid DFT calculations. A 'chain-of-spheres' algorithm for the Hartree-Fock exchange
     Chem. Phys., 2009 356(1-3)98-109
     doi.org/10.1016/j.chemphys.2008.10.036
  3. Bykov,D.; Petrenko,T.; Izsak,R.; Kossmann,S.; Becker,U.; Valeev,E.; Neese,F.
     Efficient implementation of the analytic second derivatives of Hartree-Fock and hybrid DFT energies: a detailed analysis of different approximations
     Molec. Phys., 2015 113 1961-1977
     doi.org/10.1080/00268976.2015.1025114
  4. Helmich-Paris,B.; de Souza,B.; Neese,F.; Izsák,R.
     An improved chain of spheres for exchange algorithm
     J. Chem. Phys., 2021 155 104109
     doi.org/doi: 10.1063/5.0058766.
  5. Neese,F.
     The SHARK Integral Generation and Digestion System
     J. Comp. Chem., 2022  1-16
     doi.org/10.1002/jcc.26942
  6. Grimme,S.; Antony,J.; Ehrlich,S.; Krieg,H.
     A consistent and accurate ab initio parametrization of density functional dispersion correction (DFT-D) for the 94 elements H-Pu
     J. Chem. Phys., 2010 132 154104
     doi.org/10.1063/1.3382344

List of suggested additional citations. These are papers that are important in the 'surrounding' of 
of this run, or papers that preceded the highly important papers. If you like your results we are grateful for a citation.

  1. Izsak,R.; Neese,F.
     An overlap fitted chain of spheres exchange method
     J. Chem. Phys., 2011 135 144105
     doi.org/10.1063/1.3646921
  2. Izsak,R.; Hansen,A.; Neese,F.
     The resolution of identity and chain of spheres approximations for the LPNO-CCSD singles Fock term
     Molec. Phys., 2012 110 2413-2417
     doi.org/10.1080/00268976.2012.687466
  3. Neese,F.
     The ORCA program system
     WIRES Comput. Molec. Sci., 2012 2(1)73-78
     doi.org/10.1002/wcms.81
  4. Izsak,R.; Neese,F.; Klopper,W.
     Robust fitting techniques in the chain of spheres approximation to the Fock exchange: The role of the complementary space
     J. Chem. Phys., 2013 139 
     doi.org/10.1063/1.4819264
  5. Neese,F.
     Software update: the ORCA program system, version 4.0
     WIRES Comput. Molec. Sci., 2018 8(1)1-6
     doi.org/10.1002/wcms.1327
  6. Neese,F.; Wennmohs,F.; Becker,U.; Riplinger,C.
     The ORCA quantum chemistry program package
     J. Chem. Phys., 2020 152 Art. No. L224108
     doi.org/10.1063/5.0004608

List of optional additional citations

  1. Neese,F.
     Approximate second-order SCF convergence for spin unrestricted wavefunctions
     Chem. Phys. Lett., 2000 325(1-3)93-98
     doi.org/10.1016/s0009-2614(00)00662-x

Timings for individual modules:

Sum of individual times          ...    29304.760 sec (= 488.413 min)
Startup calculation              ...      513.527 sec (=   8.559 min)   1.8 %
SCF iterations                   ...     6343.910 sec (= 105.732 min)  21.6 %
Property calculations            ...        0.862 sec (=   0.014 min)   0.0 %
SCF Gradient evaluation          ...     1320.597 sec (=  22.010 min)   4.5 %
Numerical frequency calculation  ...    21125.863 sec (= 352.098 min)  72.1 %
                             ****ORCA TERMINATED NORMALLY****
TOTAL RUN TIME: 0 days 8 hours 5 minutes 46 seconds 436 msec
